
     Program BANDS v.5.0.2 (svn rev. 9656) starts on 12May2015 at 17:25:31 

     This program is part of the open-source Quantum ESPRESSO suite
     for quantum simulation of materials; please cite
         "P. Giannozzi et al., J. Phys.:Condens. Matter 21 395502 (2009);
          URL http://www.quantum-espresso.org", 
     in publications or presentations arising from this work. More details at
     http://www.quantum-espresso.org/quote.php

     Parallel version (MPI), running on    20 processors
     R & G space division:  proc/nbgrp/npool/nimage =      20

   Info: using nr1, nr2, nr3 values from input

   Info: using nr1s, nr2s, nr3s values from input

     IMPORTANT: XC functional enforced from input :
     Exchange-correlation      =  SLA  PZ   NOGX NOGC ( 1 1 0 0 0)
     EXX-fraction              =        0.00
     Any further DFT definition will be discarded
     Please, verify this is what you really want

 
     Parallelization info
     --------------------
     sticks:   dense  smooth     PW     G-vecs:    dense   smooth      PW
     Min          59      59     18                 8317     8317    1370
     Max          60      60     19                 8332     8332    1385
     Sum        1189    1189    361               166445   166445   27451
 

 **************************************************************************

                    xk=(   0.50000,   0.28868,   0.00000  )

     point group C_2v (mm2) 
     there are  4 classes
     the character table:

       E     C2    s_xz  s_yz 
A_1    1.00  1.00  1.00  1.00
A_2    1.00  1.00 -1.00 -1.00
B_1    1.00 -1.00  1.00 -1.00
B_2    1.00 -1.00 -1.00  1.00

     the symmetry operations in each class:
     E        1
     C2       2
     s_xz     3
     s_yz     4

     Band symmetry, C_2v (mm2)  point group:

     e(  1 -  1) =    -10.77487  eV     1   --> B_2  D_4  S_4  
     e(  2 -  2) =     -9.33105  eV     1   --> A_1  D_1  S_1  
     e(  3 -  3) =     -9.20874  eV     1   --> B_2  D_4  S_4  
     e(  4 -  4) =     -7.75463  eV     1   --> A_1  D_1  S_1  
     e(  5 -  5) =     -4.67742  eV     1   --> B_1  D_3  S_3  
     e(  6 -  6) =     -3.62575  eV     1   --> B_2  D_4  S_4  
     e(  7 -  7) =     -3.43839  eV     1   --> B_1  D_3  S_3  
     e(  8 -  8) =     -2.75250  eV     1   --> A_1  D_1  S_1  
     e(  9 -  9) =     -2.10239  eV     1   --> A_1  D_1  S_1  
     e( 10 - 10) =     -1.01373  eV     1   --> A_1  D_1  S_1  
     e( 11 - 11) =      0.12117  eV     1   --> B_2  D_4  S_4  
     e( 12 - 12) =      1.32066  eV     1   --> A_1  D_1  S_1  
     e( 13 - 13) =      3.02308  eV     1   --> A_1  D_1  S_1  
     e( 14 - 14) =      3.33067  eV     1   --> B_2  D_4  S_4  
     e( 15 - 15) =      3.66243  eV     1   --> B_1  D_3  S_3  
     e( 16 - 16) =      3.85512  eV     1   --> B_2  D_4  S_4  

 **************************************************************************

 **************************************************************************

                    xk=(   0.49500,   0.28579,   0.00000  )

     point group C_s (m)    
     there are  2 classes
     the character table:

       E     s    
A'     1.00  1.00
A''    1.00 -1.00

     the symmetry operations in each class:
     E        1
     s        2

     Band symmetry, C_s (m)     point group:

     e(  1 -  1) =    -10.77570  eV     1   --> A'             
     e(  2 -  2) =     -9.32989  eV     1   --> A'             
     e(  3 -  3) =     -9.20960  eV     1   --> A'             
     e(  4 -  4) =     -7.75341  eV     1   --> A'             
     e(  5 -  5) =     -4.67725  eV     1   --> A''            
     e(  6 -  6) =     -3.62656  eV     1   --> A'             
     e(  7 -  7) =     -3.43822  eV     1   --> A''            
     e(  8 -  8) =     -2.75208  eV     1   --> A'             
     e(  9 -  9) =     -2.10162  eV     1   --> A'             
     e( 10 - 10) =     -1.01361  eV     1   --> A'             
     e( 11 - 11) =      0.12016  eV     1   --> A'             
     e( 12 - 12) =      1.32194  eV     1   --> A'             
     e( 13 - 13) =      3.02196  eV     1   --> A'             
     e( 14 - 14) =      3.32963  eV     1   --> A'             
     e( 15 - 15) =      3.66261  eV     1   --> A''            
     e( 16 - 16) =      3.84926  eV     1   --> A'             

 **************************************************************************

 **************************************************************************

                    xk=(   0.49000,   0.28290,   0.00000  )

     Band symmetry, C_s (m)     point group:

     e(  1 -  1) =    -10.77816  eV     1   --> A'             
     e(  2 -  2) =     -9.32639  eV     1   --> A'             
     e(  3 -  3) =     -9.21216  eV     1   --> A'             
     e(  4 -  4) =     -7.74977  eV     1   --> A'             
     e(  5 -  5) =     -4.67673  eV     1   --> A''            
     e(  6 -  6) =     -3.62899  eV     1   --> A'             
     e(  7 -  7) =     -3.43770  eV     1   --> A''            
     e(  8 -  8) =     -2.75081  eV     1   --> A'             
     e(  9 -  9) =     -2.09930  eV     1   --> A'             
     e( 10 - 10) =     -1.01326  eV     1   --> A'             
     e( 11 - 11) =      0.11714  eV     1   --> A'             
     e( 12 - 12) =      1.32576  eV     1   --> A'             
     e( 13 - 13) =      3.01859  eV     1   --> A'             
     e( 14 - 14) =      3.32640  eV     1   --> A'             
     e( 15 - 15) =      3.66316  eV     1   --> A''            
     e( 16 - 16) =      3.83275  eV     1   --> A'             

 **************************************************************************

 **************************************************************************

                    xk=(   0.48500,   0.28001,   0.00000  )

     Band symmetry, C_s (m)     point group:

     e(  1 -  1) =    -10.78223  eV     1   --> A'             
     e(  2 -  2) =     -9.32060  eV     1   --> A'             
     e(  3 -  3) =     -9.21639  eV     1   --> A'             
     e(  4 -  4) =     -7.74373  eV     1   --> A'             
     e(  5 -  5) =     -4.67587  eV     1   --> A''            
     e(  6 -  6) =     -3.63301  eV     1   --> A'             
     e(  7 -  7) =     -3.43684  eV     1   --> A''            
     e(  8 -  8) =     -2.74871  eV     1   --> A'             
     e(  9 -  9) =     -2.09545  eV     1   --> A'             
     e( 10 - 10) =     -1.01267  eV     1   --> A'             
     e( 11 - 11) =      0.11216  eV     1   --> A'             
     e( 12 - 12) =      1.33207  eV     1   --> A'             
     e( 13 - 13) =      3.01304  eV     1   --> A'             
     e( 14 - 14) =      3.32064  eV     1   --> A'             
     e( 15 - 15) =      3.66407  eV     1   --> A''            
     e( 16 - 16) =      3.80818  eV     1   --> A'             

 **************************************************************************

 **************************************************************************

                    xk=(   0.48000,   0.27713,   0.00000  )

     Band symmetry, C_s (m)     point group:

     e(  1 -  1) =    -10.78789  eV     1   --> A'             
     e(  2 -  2) =     -9.31255  eV     1   --> A'             
     e(  3 -  3) =     -9.22226  eV     1   --> A'             
     e(  4 -  4) =     -7.73534  eV     1   --> A'             
     e(  5 -  5) =     -4.67466  eV     1   --> A''            
     e(  6 -  6) =     -3.63858  eV     1   --> A'             
     e(  7 -  7) =     -3.43564  eV     1   --> A''            
     e(  8 -  8) =     -2.74583  eV     1   --> A'             
     e(  9 -  9) =     -2.09007  eV     1   --> A'             
     e( 10 - 10) =     -1.01185  eV     1   --> A'             
     e( 11 - 11) =      0.10527  eV     1   --> A'             
     e( 12 - 12) =      1.34082  eV     1   --> A'             
     e( 13 - 13) =      3.00541  eV     1   --> A'             
     e( 14 - 14) =      3.31176  eV     1   --> A'             
     e( 15 - 15) =      3.66535  eV     1   --> A''            
     e( 16 - 16) =      3.77857  eV     1   --> A'             

 **************************************************************************

 **************************************************************************

                    xk=(   0.47500,   0.27424,   0.00000  )

     Band symmetry, C_s (m)     point group:

     e(  1 -  1) =    -10.79506  eV     1   --> A'             
     e(  2 -  2) =     -9.30228  eV     1   --> A'             
     e(  3 -  3) =     -9.22970  eV     1   --> A'             
     e(  4 -  4) =     -7.72465  eV     1   --> A'             
     e(  5 -  5) =     -4.67311  eV     1   --> A''            
     e(  6 -  6) =     -3.64564  eV     1   --> A'             
     e(  7 -  7) =     -3.43410  eV     1   --> A''            
     e(  8 -  8) =     -2.74222  eV     1   --> A'             
     e(  9 -  9) =     -2.08316  eV     1   --> A'             
     e( 10 - 10) =     -1.01079  eV     1   --> A'             
     e( 11 - 11) =      0.09656  eV     1   --> A'             
     e( 12 - 12) =      1.35191  eV     1   --> A'             
     e( 13 - 13) =      2.99580  eV     1   --> A'             
     e( 14 - 14) =      3.29897  eV     1   --> A'             
     e( 15 - 15) =      3.66698  eV     1   --> A''            
     e( 16 - 16) =      3.74669  eV     1   --> A'             

 **************************************************************************

 **************************************************************************

                    xk=(   0.47000,   0.27135,   0.00000  )

     Band symmetry, C_s (m)     point group:

     e(  1 -  1) =    -10.80369  eV     1   --> A'             
     e(  2 -  2) =     -9.28988  eV     1   --> A'             
     e(  3 -  3) =     -9.23865  eV     1   --> A'             
     e(  4 -  4) =     -7.71173  eV     1   --> A'             
     e(  5 -  5) =     -4.67121  eV     1   --> A''            
     e(  6 -  6) =     -3.65413  eV     1   --> A'             
     e(  7 -  7) =     -3.43221  eV     1   --> A''            
     e(  8 -  8) =     -2.73792  eV     1   --> A'             
     e(  9 -  9) =     -2.07475  eV     1   --> A'             
     e( 10 - 10) =     -1.00951  eV     1   --> A'             
     e( 11 - 11) =      0.08614  eV     1   --> A'             
     e( 12 - 12) =      1.36524  eV     1   --> A'             
     e( 13 - 13) =      2.98435  eV     1   --> A'             
     e( 14 - 14) =      3.28134  eV     1   --> A'             
     e( 15 - 15) =      3.66898  eV     1   --> A''            
     e( 16 - 16) =      3.71496  eV     1   --> A'             

 **************************************************************************

 **************************************************************************

                    xk=(   0.46500,   0.26847,   0.00000  )

     Band symmetry, C_s (m)     point group:

     e(  1 -  1) =    -10.81370  eV     1   --> A'             
     e(  2 -  2) =     -9.27541  eV     1   --> A'             
     e(  3 -  3) =     -9.24903  eV     1   --> A'             
     e(  4 -  4) =     -7.69667  eV     1   --> A'             
     e(  5 -  5) =     -4.66897  eV     1   --> A''            
     e(  6 -  6) =     -3.66395  eV     1   --> A'             
     e(  7 -  7) =     -3.42999  eV     1   --> A''            
     e(  8 -  8) =     -2.73302  eV     1   --> A'             
     e(  9 -  9) =     -2.06486  eV     1   --> A'             
     e( 10 - 10) =     -1.00800  eV     1   --> A'             
     e( 11 - 11) =      0.07411  eV     1   --> A'             
     e( 12 - 12) =      1.38069  eV     1   --> A'             
     e( 13 - 13) =      2.97120  eV     1   --> A'             
     e( 14 - 14) =      3.25793  eV     1   --> A'             
     e( 15 - 15) =      3.67132  eV     1   --> A''            
     e( 16 - 16) =      3.68538  eV     1   --> A'             

 **************************************************************************

 **************************************************************************

                    xk=(   0.46000,   0.26558,   0.00000  )

     Band symmetry, C_s (m)     point group:

     e(  1 -  1) =    -10.82501  eV     1   --> A'             
     e(  2 -  2) =     -9.26074  eV     1   --> A'             
     e(  3 -  3) =     -9.25896  eV     1   --> A'             
     e(  4 -  4) =     -7.67954  eV     1   --> A'             
     e(  5 -  5) =     -4.66639  eV     1   --> A''            
     e(  6 -  6) =     -3.67503  eV     1   --> A'             
     e(  7 -  7) =     -3.42742  eV     1   --> A''            
     e(  8 -  8) =     -2.72756  eV     1   --> A'             
     e(  9 -  9) =     -2.05350  eV     1   --> A'             
     e( 10 - 10) =     -1.00626  eV     1   --> A'             
     e( 11 - 11) =      0.06060  eV     1   --> A'             
     e( 12 - 12) =      1.39812  eV     1   --> A'             
     e( 13 - 13) =      2.95649  eV     1   --> A'             
     e( 14 - 14) =      3.22806  eV     1   --> A'             
     e( 15 - 15) =      3.65940  eV     1   --> A'             
     e( 16 - 16) =      3.67401  eV     1   --> A''            

 **************************************************************************

 **************************************************************************

                    xk=(   0.45500,   0.26269,   0.00000  )

     Band symmetry, C_s (m)     point group:

     e(  1 -  1) =    -10.83753  eV     1   --> A'             
     e(  2 -  2) =     -9.27370  eV     1   --> A'             
     e(  3 -  3) =     -9.24062  eV     1   --> A'             
     e(  4 -  4) =     -7.66045  eV     1   --> A'             
     e(  5 -  5) =     -4.66347  eV     1   --> A''            
     e(  6 -  6) =     -3.68728  eV     1   --> A'             
     e(  7 -  7) =     -3.42451  eV     1   --> A''            
     e(  8 -  8) =     -2.72163  eV     1   --> A'             
     e(  9 -  9) =     -2.04070  eV     1   --> A'             
     e( 10 - 10) =     -1.00431  eV     1   --> A'             
     e( 11 - 11) =      0.04574  eV     1   --> A'             
     e( 12 - 12) =      1.41741  eV     1   --> A'             
     e( 13 - 13) =      2.94034  eV     1   --> A'             
     e( 14 - 14) =      3.19149  eV     1   --> A'             
     e( 15 - 15) =      3.63781  eV     1   --> A'             
     e( 16 - 16) =      3.67702  eV     1   --> A''            

 **************************************************************************

 **************************************************************************

                    xk=(   0.45000,   0.25981,   0.00000  )

     Band symmetry, C_s (m)     point group:

     e(  1 -  1) =    -10.85117  eV     1   --> A'             
     e(  2 -  2) =     -9.28781  eV     1   --> A'             
     e(  3 -  3) =     -9.22047  eV     1   --> A'             
     e(  4 -  4) =     -7.63949  eV     1   --> A'             
     e(  5 -  5) =     -4.66021  eV     1   --> A''            
     e(  6 -  6) =     -3.70061  eV     1   --> A'             
     e(  7 -  7) =     -3.42127  eV     1   --> A''            
     e(  8 -  8) =     -2.71530  eV     1   --> A'             
     e(  9 -  9) =     -2.02649  eV     1   --> A'             
     e( 10 - 10) =     -1.00214  eV     1   --> A'             
     e( 11 - 11) =      0.02965  eV     1   --> A'             
     e( 12 - 12) =      1.43841  eV     1   --> A'             
     e( 13 - 13) =      2.92289  eV     1   --> A'             
     e( 14 - 14) =      3.14853  eV     1   --> A'             
     e( 15 - 15) =      3.62073  eV     1   --> A'             
     e( 16 - 16) =      3.68032  eV     1   --> A''            

 **************************************************************************

 **************************************************************************

                    xk=(   0.44500,   0.25692,   0.00000  )

     Band symmetry, C_s (m)     point group:

     e(  1 -  1) =    -10.86584  eV     1   --> A'             
     e(  2 -  2) =     -9.30298  eV     1   --> A'             
     e(  3 -  3) =     -9.19861  eV     1   --> A'             
     e(  4 -  4) =     -7.61675  eV     1   --> A'             
     e(  5 -  5) =     -4.65660  eV     1   --> A''            
     e(  6 -  6) =     -3.71492  eV     1   --> A'             
     e(  7 -  7) =     -3.41768  eV     1   --> A''            
     e(  8 -  8) =     -2.70862  eV     1   --> A'             
     e(  9 -  9) =     -2.01090  eV     1   --> A'             
     e( 10 - 10) =     -0.99976  eV     1   --> A'             
     e( 11 - 11) =      0.01246  eV     1   --> A'             
     e( 12 - 12) =      1.46100  eV     1   --> A'             
     e( 13 - 13) =      2.90421  eV     1   --> A'             
     e( 14 - 14) =      3.09994  eV     1   --> A'             
     e( 15 - 15) =      3.60772  eV     1   --> A'             
     e( 16 - 16) =      3.68386  eV     1   --> A''            

 **************************************************************************

 **************************************************************************

                    xk=(   0.44000,   0.25403,   0.00000  )

     Band symmetry, C_s (m)     point group:

     e(  1 -  1) =    -10.88145  eV     1   --> A'             
     e(  2 -  2) =     -9.31911  eV     1   --> A'             
     e(  3 -  3) =     -9.17512  eV     1   --> A'             
     e(  4 -  4) =     -7.59234  eV     1   --> A'             
     e(  5 -  5) =     -4.65266  eV     1   --> A''            
     e(  6 -  6) =     -3.73012  eV     1   --> A'             
     e(  7 -  7) =     -3.41376  eV     1   --> A''            
     e(  8 -  8) =     -2.70166  eV     1   --> A'             
     e(  9 -  9) =     -1.99398  eV     1   --> A'             
     e( 10 - 10) =     -0.99718  eV     1   --> A'             
     e( 11 - 11) =     -0.00572  eV     1   --> A'             
     e( 12 - 12) =      1.48504  eV     1   --> A'             
     e( 13 - 13) =      2.88434  eV     1   --> A'             
     e( 14 - 14) =      3.04670  eV     1   --> A'             
     e( 15 - 15) =      3.59803  eV     1   --> A'             
     e( 16 - 16) =      3.68744  eV     1   --> A''            

 **************************************************************************

 **************************************************************************

                    xk=(   0.43500,   0.25115,   0.00000  )

     Band symmetry, C_s (m)     point group:

     e(  1 -  1) =    -10.89791  eV     1   --> A'             
     e(  2 -  2) =     -9.33610  eV     1   --> A'             
     e(  3 -  3) =     -9.15011  eV     1   --> A'             
     e(  4 -  4) =     -7.56634  eV     1   --> A'             
     e(  5 -  5) =     -4.64838  eV     1   --> A''            
     e(  6 -  6) =     -3.74613  eV     1   --> A'             
     e(  7 -  7) =     -3.40951  eV     1   --> A''            
     e(  8 -  8) =     -2.69447  eV     1   --> A'             
     e(  9 -  9) =     -1.97575  eV     1   --> A'             
     e( 10 - 10) =     -0.99440  eV     1   --> A'             
     e( 11 - 11) =     -0.02476  eV     1   --> A'             
     e( 12 - 12) =      1.51040  eV     1   --> A'             
     e( 13 - 13) =      2.86318  eV     1   --> A'             
     e( 14 - 14) =      2.98996  eV     1   --> A'             
     e( 15 - 15) =      3.59083  eV     1   --> A'             
     e( 16 - 16) =      3.67888  eV     1   --> A'             

 **************************************************************************

 **************************************************************************

                    xk=(   0.43000,   0.24826,   0.00000  )

     Band symmetry, C_s (m)     point group:

     e(  1 -  1) =    -10.91513  eV     1   --> A'             
     e(  2 -  2) =     -9.35388  eV     1   --> A'             
     e(  3 -  3) =     -9.12365  eV     1   --> A'             
     e(  4 -  4) =     -7.53884  eV     1   --> A'             
     e(  5 -  5) =     -4.64377  eV     1   --> A''            
     e(  6 -  6) =     -3.76287  eV     1   --> A'             
     e(  7 -  7) =     -3.40492  eV     1   --> A''            
     e(  8 -  8) =     -2.68710  eV     1   --> A'             
     e(  9 -  9) =     -1.95627  eV     1   --> A'             
     e( 10 - 10) =     -0.99143  eV     1   --> A'             
     e( 11 - 11) =     -0.04458  eV     1   --> A'             
     e( 12 - 12) =      1.53697  eV     1   --> A'             
     e( 13 - 13) =      2.84024  eV     1   --> A'             
     e( 14 - 14) =      2.93112  eV     1   --> A'             
     e( 15 - 15) =      3.58524  eV     1   --> A'             
     e( 16 - 16) =      3.64500  eV     1   --> A'             

 **************************************************************************

 **************************************************************************

                    xk=(   0.42500,   0.24537,   0.00000  )

     Band symmetry, C_s (m)     point group:

     e(  1 -  1) =    -10.93305  eV     1   --> A'             
     e(  2 -  2) =     -9.37235  eV     1   --> A'             
     e(  3 -  3) =     -9.09582  eV     1   --> A'             
     e(  4 -  4) =     -7.50993  eV     1   --> A'             
     e(  5 -  5) =     -4.63881  eV     1   --> A''            
     e(  6 -  6) =     -3.78025  eV     1   --> A'             
     e(  7 -  7) =     -3.39999  eV     1   --> A''            
     e(  8 -  8) =     -2.67961  eV     1   --> A'             
     e(  9 -  9) =     -1.93559  eV     1   --> A'             
     e( 10 - 10) =     -0.98828  eV     1   --> A'             
     e( 11 - 11) =     -0.06506  eV     1   --> A'             
     e( 12 - 12) =      1.56461  eV     1   --> A'             
     e( 13 - 13) =      2.81352  eV     1   --> A'             
     e( 14 - 14) =      2.87297  eV     1   --> A'             
     e( 15 - 15) =      3.58045  eV     1   --> A'             
     e( 16 - 16) =      3.61149  eV     1   --> A'             

 **************************************************************************

 **************************************************************************

                    xk=(   0.42000,   0.24249,   0.00000  )

     Band symmetry, C_s (m)     point group:

     e(  1 -  1) =    -10.95156  eV     1   --> A'             
     e(  2 -  2) =     -9.39143  eV     1   --> A'             
     e(  3 -  3) =     -9.06672  eV     1   --> A'             
     e(  4 -  4) =     -7.47969  eV     1   --> A'             
     e(  5 -  5) =     -4.63353  eV     1   --> A''            
     e(  6 -  6) =     -3.79821  eV     1   --> A'             
     e(  7 -  7) =     -3.39474  eV     1   --> A''            
     e(  8 -  8) =     -2.67201  eV     1   --> A'             
     e(  9 -  9) =     -1.91373  eV     1   --> A'             
     e( 10 - 10) =     -0.98495  eV     1   --> A'             
     e( 11 - 11) =     -0.08612  eV     1   --> A'             
     e( 12 - 12) =      1.59322  eV     1   --> A'             
     e( 13 - 13) =      2.77533  eV     1   --> A'             
     e( 14 - 14) =      2.82383  eV     1   --> A'             
     e( 15 - 15) =      3.57563  eV     1   --> A'             
     e( 16 - 16) =      3.57835  eV     1   --> A'             

 **************************************************************************

 **************************************************************************

                    xk=(   0.41500,   0.23960,   0.00000  )

     Band symmetry, C_s (m)     point group:

     e(  1 -  1) =    -10.97062  eV     1   --> A'             
     e(  2 -  2) =     -9.41105  eV     1   --> A'             
     e(  3 -  3) =     -9.03640  eV     1   --> A'             
     e(  4 -  4) =     -7.44820  eV     1   --> A'             
     e(  5 -  5) =     -4.62792  eV     1   --> A''            
     e(  6 -  6) =     -3.81667  eV     1   --> A'             
     e(  7 -  7) =     -3.38916  eV     1   --> A''            
     e(  8 -  8) =     -2.66435  eV     1   --> A'             
     e(  9 -  9) =     -1.89077  eV     1   --> A'             
     e( 10 - 10) =     -0.98146  eV     1   --> A'             
     e( 11 - 11) =     -0.10767  eV     1   --> A'             
     e( 12 - 12) =      1.62269  eV     1   --> A'             
     e( 13 - 13) =      2.71950  eV     1   --> A'             
     e( 14 - 14) =      2.79040  eV     1   --> A'             
     e( 15 - 15) =      3.54558  eV     1   --> A'             
     e( 16 - 16) =      3.55277  eV     1   --> A''            

 **************************************************************************

 **************************************************************************

                    xk=(   0.41000,   0.23671,   0.00000  )

     Band symmetry, C_s (m)     point group:

     e(  1 -  1) =    -10.99013  eV     1   --> A'             
     e(  2 -  2) =     -9.43114  eV     1   --> A'             
     e(  3 -  3) =     -9.00494  eV     1   --> A'             
     e(  4 -  4) =     -7.41553  eV     1   --> A'             
     e(  5 -  5) =     -4.62197  eV     1   --> A''            
     e(  6 -  6) =     -3.83556  eV     1   --> A'             
     e(  7 -  7) =     -3.38325  eV     1   --> A''            
     e(  8 -  8) =     -2.65666  eV     1   --> A'             
     e(  9 -  9) =     -1.86674  eV     1   --> A'             
     e( 10 - 10) =     -0.97782  eV     1   --> A'             
     e( 11 - 11) =     -0.12964  eV     1   --> A'             
     e( 12 - 12) =      1.65291  eV     1   --> A'             
     e( 13 - 13) =      2.65531  eV     1   --> A'             
     e( 14 - 14) =      2.76380  eV     1   --> A'             
     e( 15 - 15) =      3.49519  eV     1   --> A''            
     e( 16 - 16) =      3.51318  eV     1   --> A'             

 **************************************************************************

 **************************************************************************

                    xk=(   0.40500,   0.23383,   0.00000  )

     Band symmetry, C_s (m)     point group:

     e(  1 -  1) =    -11.01006  eV     1   --> A'             
     e(  2 -  2) =     -9.45163  eV     1   --> A'             
     e(  3 -  3) =     -8.97240  eV     1   --> A'             
     e(  4 -  4) =     -7.38174  eV     1   --> A'             
     e(  5 -  5) =     -4.61570  eV     1   --> A''            
     e(  6 -  6) =     -3.85484  eV     1   --> A'             
     e(  7 -  7) =     -3.37702  eV     1   --> A''            
     e(  8 -  8) =     -2.64896  eV     1   --> A'             
     e(  9 -  9) =     -1.84170  eV     1   --> A'             
     e( 10 - 10) =     -0.97403  eV     1   --> A'             
     e( 11 - 11) =     -0.15196  eV     1   --> A'             
     e( 12 - 12) =      1.68378  eV     1   --> A'             
     e( 13 - 13) =      2.58820  eV     1   --> A'             
     e( 14 - 14) =      2.73895  eV     1   --> A'             
     e( 15 - 15) =      3.43643  eV     1   --> A''            
     e( 16 - 16) =      3.48118  eV     1   --> A'             

 **************************************************************************

 **************************************************************************

                    xk=(   0.40000,   0.23094,   0.00000  )

     Band symmetry, C_s (m)     point group:

     e(  1 -  1) =    -11.03032  eV     1   --> A'             
     e(  2 -  2) =     -9.47246  eV     1   --> A'             
     e(  3 -  3) =     -8.93885  eV     1   --> A'             
     e(  4 -  4) =     -7.34689  eV     1   --> A'             
     e(  5 -  5) =     -4.60911  eV     1   --> A''            
     e(  6 -  6) =     -3.87443  eV     1   --> A'             
     e(  7 -  7) =     -3.37047  eV     1   --> A''            
     e(  8 -  8) =     -2.64127  eV     1   --> A'             
     e(  9 -  9) =     -1.81570  eV     1   --> A'             
     e( 10 - 10) =     -0.97011  eV     1   --> A'             
     e( 11 - 11) =     -0.17456  eV     1   --> A'             
     e( 12 - 12) =      1.71519  eV     1   --> A'             
     e( 13 - 13) =      2.51972  eV     1   --> A'             
     e( 14 - 14) =      2.71457  eV     1   --> A'             
     e( 15 - 15) =      3.37679  eV     1   --> A''            
     e( 16 - 16) =      3.44956  eV     1   --> A'             

 **************************************************************************

 **************************************************************************

                    xk=(   0.39500,   0.22805,   0.00000  )

     Band symmetry, C_s (m)     point group:

     e(  1 -  1) =    -11.05088  eV     1   --> A'             
     e(  2 -  2) =     -9.49358  eV     1   --> A'             
     e(  3 -  3) =     -8.90434  eV     1   --> A'             
     e(  4 -  4) =     -7.31106  eV     1   --> A'             
     e(  5 -  5) =     -4.60219  eV     1   --> A''            
     e(  6 -  6) =     -3.89430  eV     1   --> A'             
     e(  7 -  7) =     -3.36359  eV     1   --> A''            
     e(  8 -  8) =     -2.63360  eV     1   --> A'             
     e(  9 -  9) =     -1.78878  eV     1   --> A'             
     e( 10 - 10) =     -0.96608  eV     1   --> A'             
     e( 11 - 11) =     -0.19738  eV     1   --> A'             
     e( 12 - 12) =      1.74704  eV     1   --> A'             
     e( 13 - 13) =      2.45046  eV     1   --> A'             
     e( 14 - 14) =      2.69033  eV     1   --> A'             
     e( 15 - 15) =      3.31643  eV     1   --> A''            
     e( 16 - 16) =      3.41834  eV     1   --> A'             

 **************************************************************************

 **************************************************************************

                    xk=(   0.39000,   0.22517,   0.00000  )

     Band symmetry, C_s (m)     point group:

     e(  1 -  1) =    -11.07167  eV     1   --> A'             
     e(  2 -  2) =     -9.51494  eV     1   --> A'             
     e(  3 -  3) =     -8.86893  eV     1   --> A'             
     e(  4 -  4) =     -7.27428  eV     1   --> A'             
     e(  5 -  5) =     -4.59495  eV     1   --> A''            
     e(  6 -  6) =     -3.91440  eV     1   --> A'             
     e(  7 -  7) =     -3.35640  eV     1   --> A''            
     e(  8 -  8) =     -2.62598  eV     1   --> A'             
     e(  9 -  9) =     -1.76100  eV     1   --> A'             
     e( 10 - 10) =     -0.96193  eV     1   --> A'             
     e( 11 - 11) =     -0.22039  eV     1   --> A'             
     e( 12 - 12) =      1.77922  eV     1   --> A'             
     e( 13 - 13) =      2.38073  eV     1   --> A'             
     e( 14 - 14) =      2.66610  eV     1   --> A'             
     e( 15 - 15) =      3.25549  eV     1   --> A''            
     e( 16 - 16) =      3.38754  eV     1   --> A'             

 **************************************************************************

 **************************************************************************

                    xk=(   0.38500,   0.22228,   0.00000  )

     Band symmetry, C_s (m)     point group:

     e(  1 -  1) =    -11.09266  eV     1   --> A'             
     e(  2 -  2) =     -9.53648  eV     1   --> A'             
     e(  3 -  3) =     -8.83265  eV     1   --> A'             
     e(  4 -  4) =     -7.23660  eV     1   --> A'             
     e(  5 -  5) =     -4.58740  eV     1   --> A''            
     e(  6 -  6) =     -3.93468  eV     1   --> A'             
     e(  7 -  7) =     -3.34890  eV     1   --> A''            
     e(  8 -  8) =     -2.61842  eV     1   --> A'             
     e(  9 -  9) =     -1.73241  eV     1   --> A'             
     e( 10 - 10) =     -0.95770  eV     1   --> A'             
     e( 11 - 11) =     -0.24352  eV     1   --> A'             
     e( 12 - 12) =      1.81162  eV     1   --> A'             
     e( 13 - 13) =      2.31072  eV     1   --> A'             
     e( 14 - 14) =      2.64187  eV     1   --> A'             
     e( 15 - 15) =      3.19410  eV     1   --> A''            
     e( 16 - 16) =      3.35715  eV     1   --> A'             

 **************************************************************************

 **************************************************************************

                    xk=(   0.38000,   0.21939,   0.00000  )

     Band symmetry, C_s (m)     point group:

     e(  1 -  1) =    -11.11380  eV     1   --> A'             
     e(  2 -  2) =     -9.55817  eV     1   --> A'             
     e(  3 -  3) =     -8.79556  eV     1   --> A'             
     e(  4 -  4) =     -7.19807  eV     1   --> A'             
     e(  5 -  5) =     -4.57953  eV     1   --> A''            
     e(  6 -  6) =     -3.95511  eV     1   --> A'             
     e(  7 -  7) =     -3.34108  eV     1   --> A''            
     e(  8 -  8) =     -2.61094  eV     1   --> A'             
     e(  9 -  9) =     -1.70304  eV     1   --> A'             
     e( 10 - 10) =     -0.95340  eV     1   --> A'             
     e( 11 - 11) =     -0.26674  eV     1   --> A'             
     e( 12 - 12) =      1.84412  eV     1   --> A'             
     e( 13 - 13) =      2.24060  eV     1   --> A'             
     e( 14 - 14) =      2.61763  eV     1   --> A'             
     e( 15 - 15) =      3.13235  eV     1   --> A''            
     e( 16 - 16) =      3.32719  eV     1   --> A'             

 **************************************************************************

 **************************************************************************

                    xk=(   0.37500,   0.21651,   0.00000  )

     Band symmetry, C_s (m)     point group:

     e(  1 -  1) =    -11.13505  eV     1   --> A'             
     e(  2 -  2) =     -9.57997  eV     1   --> A'             
     e(  3 -  3) =     -8.75769  eV     1   --> A'             
     e(  4 -  4) =     -7.15873  eV     1   --> A'             
     e(  5 -  5) =     -4.57135  eV     1   --> A''            
     e(  6 -  6) =     -3.97564  eV     1   --> A'             
     e(  7 -  7) =     -3.33295  eV     1   --> A''            
     e(  8 -  8) =     -2.60354  eV     1   --> A'             
     e(  9 -  9) =     -1.67294  eV     1   --> A'             
     e( 10 - 10) =     -0.94904  eV     1   --> A'             
     e( 11 - 11) =     -0.29000  eV     1   --> A'             
     e( 12 - 12) =      1.87659  eV     1   --> A'             
     e( 13 - 13) =      2.17048  eV     1   --> A'             
     e( 14 - 14) =      2.59340  eV     1   --> A'             
     e( 15 - 15) =      3.07032  eV     1   --> A''            
     e( 16 - 16) =      3.29768  eV     1   --> A'             

 **************************************************************************

 **************************************************************************

                    xk=(   0.37000,   0.21362,   0.00000  )

     Band symmetry, C_s (m)     point group:

     e(  1 -  1) =    -11.15638  eV     1   --> A'             
     e(  2 -  2) =     -9.60183  eV     1   --> A'             
     e(  3 -  3) =     -8.71910  eV     1   --> A'             
     e(  4 -  4) =     -7.11862  eV     1   --> A'             
     e(  5 -  5) =     -4.56285  eV     1   --> A''            
     e(  6 -  6) =     -3.99625  eV     1   --> A'             
     e(  7 -  7) =     -3.32452  eV     1   --> A''            
     e(  8 -  8) =     -2.59624  eV     1   --> A'             
     e(  9 -  9) =     -1.64217  eV     1   --> A'             
     e( 10 - 10) =     -0.94465  eV     1   --> A'             
     e( 11 - 11) =     -0.31328  eV     1   --> A'             
     e( 12 - 12) =      1.90890  eV     1   --> A'             
     e( 13 - 13) =      2.10044  eV     1   --> A'             
     e( 14 - 14) =      2.56919  eV     1   --> A'             
     e( 15 - 15) =      3.00810  eV     1   --> A''            
     e( 16 - 16) =      3.26862  eV     1   --> A'             

 **************************************************************************

 **************************************************************************

                    xk=(   0.36500,   0.21073,   0.00000  )

     Band symmetry, C_s (m)     point group:

     e(  1 -  1) =    -11.17775  eV     1   --> A'             
     e(  2 -  2) =     -9.62372  eV     1   --> A'             
     e(  3 -  3) =     -8.67980  eV     1   --> A'             
     e(  4 -  4) =     -7.07778  eV     1   --> A'             
     e(  5 -  5) =     -4.55406  eV     1   --> A''            
     e(  6 -  6) =     -4.01690  eV     1   --> A'             
     e(  7 -  7) =     -3.31579  eV     1   --> A''            
     e(  8 -  8) =     -2.58905  eV     1   --> A'             
     e(  9 -  9) =     -1.61075  eV     1   --> A'             
     e( 10 - 10) =     -0.94024  eV     1   --> A'             
     e( 11 - 11) =     -0.33654  eV     1   --> A'             
     e( 12 - 12) =      1.94087  eV     1   --> A'             
     e( 13 - 13) =      2.03059  eV     1   --> A'             
     e( 14 - 14) =      2.54504  eV     1   --> A'             
     e( 15 - 15) =      2.94574  eV     1   --> A''            
     e( 16 - 16) =      3.24005  eV     1   --> A'             

 **************************************************************************

 **************************************************************************

                    xk=(   0.36000,   0.20785,   0.00000  )

     Band symmetry, C_s (m)     point group:

     e(  1 -  1) =    -11.19913  eV     1   --> A'             
     e(  2 -  2) =     -9.64562  eV     1   --> A'             
     e(  3 -  3) =     -8.63983  eV     1   --> A'             
     e(  4 -  4) =     -7.03623  eV     1   --> A'             
     e(  5 -  5) =     -4.54496  eV     1   --> A''            
     e(  6 -  6) =     -4.03756  eV     1   --> A'             
     e(  7 -  7) =     -3.30675  eV     1   --> A''            
     e(  8 -  8) =     -2.58199  eV     1   --> A'             
     e(  9 -  9) =     -1.57874  eV     1   --> A'             
     e( 10 - 10) =     -0.93583  eV     1   --> A'             
     e( 11 - 11) =     -0.35976  eV     1   --> A'             
     e( 12 - 12) =      1.96099  eV     1   --> A'             
     e( 13 - 13) =      1.97233  eV     1   --> A'             
     e( 14 - 14) =      2.52097  eV     1   --> A'             
     e( 15 - 15) =      2.88332  eV     1   --> A''            
     e( 16 - 16) =      3.21197  eV     1   --> A'             

 **************************************************************************

 **************************************************************************

                    xk=(   0.35500,   0.20496,   0.00000  )

     Band symmetry, C_s (m)     point group:

     e(  1 -  1) =    -11.22049  eV     1   --> A'             
     e(  2 -  2) =     -9.66750  eV     1   --> A'             
     e(  3 -  3) =     -8.59923  eV     1   --> A'             
     e(  4 -  4) =     -6.99401  eV     1   --> A'             
     e(  5 -  5) =     -4.53556  eV     1   --> A''            
     e(  6 -  6) =     -4.05822  eV     1   --> A'             
     e(  7 -  7) =     -3.29742  eV     1   --> A''            
     e(  8 -  8) =     -2.57508  eV     1   --> A'             
     e(  9 -  9) =     -1.54616  eV     1   --> A'             
     e( 10 - 10) =     -0.93145  eV     1   --> A'             
     e( 11 - 11) =     -0.38290  eV     1   --> A'             
     e( 12 - 12) =      1.89172  eV     1   --> A'             
     e( 13 - 13) =      2.00308  eV     1   --> A'             
     e( 14 - 14) =      2.49698  eV     1   --> A'             
     e( 15 - 15) =      2.82088  eV     1   --> A''            
     e( 16 - 16) =      3.18443  eV     1   --> A'             

 **************************************************************************

 **************************************************************************

                    xk=(   0.35000,   0.20207,   0.00000  )

     Band symmetry, C_s (m)     point group:

     e(  1 -  1) =    -11.24182  eV     1   --> A'             
     e(  2 -  2) =     -9.68933  eV     1   --> A'             
     e(  3 -  3) =     -8.55801  eV     1   --> A'             
     e(  4 -  4) =     -6.95113  eV     1   --> A'             
     e(  5 -  5) =     -4.52587  eV     1   --> A''            
     e(  6 -  6) =     -4.07884  eV     1   --> A'             
     e(  7 -  7) =     -3.28781  eV     1   --> A''            
     e(  8 -  8) =     -2.56833  eV     1   --> A'             
     e(  9 -  9) =     -1.51306  eV     1   --> A'             
     e( 10 - 10) =     -0.92712  eV     1   --> A'             
     e( 11 - 11) =     -0.40594  eV     1   --> A'             
     e( 12 - 12) =      1.82283  eV     1   --> A'             
     e( 13 - 13) =      2.03286  eV     1   --> A'             
     e( 14 - 14) =      2.47312  eV     1   --> A'             
     e( 15 - 15) =      2.75849  eV     1   --> A''            
     e( 16 - 16) =      3.15744  eV     1   --> A'             

 **************************************************************************

 **************************************************************************

                    xk=(   0.34500,   0.19919,   0.00000  )

     Band symmetry, C_s (m)     point group:

     e(  1 -  1) =    -11.26308  eV     1   --> A'             
     e(  2 -  2) =     -9.71108  eV     1   --> A'             
     e(  3 -  3) =     -8.51622  eV     1   --> A'             
     e(  4 -  4) =     -6.90764  eV     1   --> A'             
     e(  5 -  5) =     -4.51589  eV     1   --> A''            
     e(  6 -  6) =     -4.09941  eV     1   --> A'             
     e(  7 -  7) =     -3.27790  eV     1   --> A''            
     e(  8 -  8) =     -2.56176  eV     1   --> A'             
     e(  9 -  9) =     -1.47947  eV     1   --> A'             
     e( 10 - 10) =     -0.92288  eV     1   --> A'             
     e( 11 - 11) =     -0.42887  eV     1   --> A'             
     e( 12 - 12) =      1.75438  eV     1   --> A'             
     e( 13 - 13) =      2.06140  eV     1   --> A'             
     e( 14 - 14) =      2.44938  eV     1   --> A'             
     e( 15 - 15) =      2.69617  eV     1   --> A''            
     e( 16 - 16) =      3.13104  eV     1   --> A'             

 **************************************************************************

 **************************************************************************

                    xk=(   0.34000,   0.19630,   0.00000  )

     Band symmetry, C_s (m)     point group:

     e(  1 -  1) =    -11.28426  eV     1   --> A'             
     e(  2 -  2) =     -9.73274  eV     1   --> A'             
     e(  3 -  3) =     -8.47387  eV     1   --> A'             
     e(  4 -  4) =     -6.86355  eV     1   --> A'             
     e(  5 -  5) =     -4.50562  eV     1   --> A''            
     e(  6 -  6) =     -4.11990  eV     1   --> A'             
     e(  7 -  7) =     -3.26771  eV     1   --> A''            
     e(  8 -  8) =     -2.55540  eV     1   --> A'             
     e(  9 -  9) =     -1.44542  eV     1   --> A'             
     e( 10 - 10) =     -0.91873  eV     1   --> A'             
     e( 11 - 11) =     -0.45165  eV     1   --> A'             
     e( 12 - 12) =      1.68642  eV     1   --> A'             
     e( 13 - 13) =      2.08836  eV     1   --> A'             
     e( 14 - 14) =      2.42580  eV     1   --> A'             
     e( 15 - 15) =      2.63397  eV     1   --> A''            
     e( 16 - 16) =      3.10525  eV     1   --> A'             

 **************************************************************************

 **************************************************************************

                    xk=(   0.33500,   0.19341,   0.00000  )

     Band symmetry, C_s (m)     point group:

     e(  1 -  1) =    -11.30533  eV     1   --> A'             
     e(  2 -  2) =     -9.75428  eV     1   --> A'             
     e(  3 -  3) =     -8.43098  eV     1   --> A'             
     e(  4 -  4) =     -6.81889  eV     1   --> A'             
     e(  5 -  5) =     -4.49507  eV     1   --> A''            
     e(  6 -  6) =     -4.14030  eV     1   --> A'             
     e(  7 -  7) =     -3.25725  eV     1   --> A''            
     e(  8 -  8) =     -2.54926  eV     1   --> A'             
     e(  9 -  9) =     -1.41095  eV     1   --> A'             
     e( 10 - 10) =     -0.91473  eV     1   --> A'             
     e( 11 - 11) =     -0.47428  eV     1   --> A'             
     e( 12 - 12) =      1.61902  eV     1   --> A'             
     e( 13 - 13) =      2.11335  eV     1   --> A'             
     e( 14 - 14) =      2.40239  eV     1   --> A'             
     e( 15 - 15) =      2.57194  eV     1   --> A''            
     e( 16 - 16) =      3.08010  eV     1   --> A'             

 **************************************************************************

 **************************************************************************

                    xk=(   0.33000,   0.19053,   0.00000  )

     Band symmetry, C_s (m)     point group:

     e(  1 -  1) =    -11.32627  eV     1   --> A'             
     e(  2 -  2) =     -9.77569  eV     1   --> A'             
     e(  3 -  3) =     -8.38758  eV     1   --> A'             
     e(  4 -  4) =     -6.77367  eV     1   --> A'             
     e(  5 -  5) =     -4.48424  eV     1   --> A''            
     e(  6 -  6) =     -4.16059  eV     1   --> A'             
     e(  7 -  7) =     -3.24651  eV     1   --> A''            
     e(  8 -  8) =     -2.54336  eV     1   --> A'             
     e(  9 -  9) =     -1.37609  eV     1   --> A'             
     e( 10 - 10) =     -0.91090  eV     1   --> A'             
     e( 11 - 11) =     -0.49674  eV     1   --> A'             
     e( 12 - 12) =      1.55223  eV     1   --> A'             
     e( 13 - 13) =      2.13594  eV     1   --> A'             
     e( 14 - 14) =      2.37916  eV     1   --> A'             
     e( 15 - 15) =      2.51010  eV     1   --> A''            
     e( 16 - 16) =      3.05558  eV     1   --> A'             

 **************************************************************************

 **************************************************************************

                    xk=(   0.32500,   0.18764,   0.00000  )

     Band symmetry, C_s (m)     point group:

     e(  1 -  1) =    -11.34708  eV     1   --> A'             
     e(  2 -  2) =     -9.79695  eV     1   --> A'             
     e(  3 -  3) =     -8.34369  eV     1   --> A'             
     e(  4 -  4) =     -6.72791  eV     1   --> A'             
     e(  5 -  5) =     -4.47314  eV     1   --> A''            
     e(  6 -  6) =     -4.18074  eV     1   --> A'             
     e(  7 -  7) =     -3.23550  eV     1   --> A''            
     e(  8 -  8) =     -2.53775  eV     1   --> A'             
     e(  9 -  9) =     -1.34088  eV     1   --> A'             
     e( 10 - 10) =     -0.90727  eV     1   --> A'             
     e( 11 - 11) =     -0.51901  eV     1   --> A'             
     e( 12 - 12) =      1.48609  eV     1   --> A'             
     e( 13 - 13) =      2.15562  eV     1   --> A'             
     e( 14 - 14) =      2.35613  eV     1   --> A'             
     e( 15 - 15) =      2.44850  eV     1   --> A''            
     e( 16 - 16) =      3.03166  eV     1   --> A'             

 **************************************************************************

 **************************************************************************

                    xk=(   0.32000,   0.18475,   0.00000  )

     Band symmetry, C_s (m)     point group:

     e(  1 -  1) =    -11.36773  eV     1   --> A'             
     e(  2 -  2) =     -9.81805  eV     1   --> A'             
     e(  3 -  3) =     -8.29933  eV     1   --> A'             
     e(  4 -  4) =     -6.68164  eV     1   --> A'             
     e(  5 -  5) =     -4.46177  eV     1   --> A''            
     e(  6 -  6) =     -4.20076  eV     1   --> A'             
     e(  7 -  7) =     -3.22423  eV     1   --> A''            
     e(  8 -  8) =     -2.53244  eV     1   --> A'             
     e(  9 -  9) =     -1.30533  eV     1   --> A'             
     e( 10 - 10) =     -0.90388  eV     1   --> A'             
     e( 11 - 11) =     -0.54107  eV     1   --> A'             
     e( 12 - 12) =      1.42066  eV     1   --> A'             
     e( 13 - 13) =      2.17183  eV     1   --> A'             
     e( 14 - 14) =      2.33332  eV     1   --> A'             
     e( 15 - 15) =      2.38715  eV     1   --> A''            
     e( 16 - 16) =      3.00822  eV     1   --> A'             

 **************************************************************************

 **************************************************************************

                    xk=(   0.31500,   0.18187,   0.00000  )

     Band symmetry, C_s (m)     point group:

     e(  1 -  1) =    -11.38820  eV     1   --> A'             
     e(  2 -  2) =     -9.83897  eV     1   --> A'             
     e(  3 -  3) =     -8.25451  eV     1   --> A'             
     e(  4 -  4) =     -6.63486  eV     1   --> A'             
     e(  5 -  5) =     -4.45014  eV     1   --> A''            
     e(  6 -  6) =     -4.22062  eV     1   --> A'             
     e(  7 -  7) =     -3.21270  eV     1   --> A''            
     e(  8 -  8) =     -2.52746  eV     1   --> A'             
     e(  9 -  9) =     -1.26948  eV     1   --> A'             
     e( 10 - 10) =     -0.90078  eV     1   --> A'             
     e( 11 - 11) =     -0.56292  eV     1   --> A'             
     e( 12 - 12) =      1.35598  eV     1   --> A'             
     e( 13 - 13) =      2.18401  eV     1   --> A'             
     e( 14 - 14) =      2.31072  eV     1   --> A'             
     e( 15 - 15) =      2.32609  eV     1   --> A''            
     e( 16 - 16) =      2.98508  eV     1   --> A'             

 **************************************************************************

 **************************************************************************

                    xk=(   0.31000,   0.17898,   0.00000  )

     Band symmetry, C_s (m)     point group:

     e(  1 -  1) =    -11.40850  eV     1   --> A'             
     e(  2 -  2) =     -9.85969  eV     1   --> A'             
     e(  3 -  3) =     -8.20925  eV     1   --> A'             
     e(  4 -  4) =     -6.58760  eV     1   --> A'             
     e(  5 -  5) =     -4.43825  eV     1   --> A''            
     e(  6 -  6) =     -4.24031  eV     1   --> A'             
     e(  7 -  7) =     -3.20092  eV     1   --> A''            
     e(  8 -  8) =     -2.52285  eV     1   --> A'             
     e(  9 -  9) =     -1.23336  eV     1   --> A'             
     e( 10 - 10) =     -0.89799  eV     1   --> A'             
     e( 11 - 11) =     -0.58454  eV     1   --> A'             
     e( 12 - 12) =      1.29212  eV     1   --> A'             
     e( 13 - 13) =      2.19161  eV     1   --> A'             
     e( 14 - 14) =      2.26535  eV     1   --> A''            
     e( 15 - 15) =      2.28836  eV     1   --> A'             
     e( 16 - 16) =      2.96198  eV     1   --> A'             

 **************************************************************************

 **************************************************************************

                    xk=(   0.30500,   0.17609,   0.00000  )

     Band symmetry, C_s (m)     point group:

     e(  1 -  1) =    -11.42860  eV     1   --> A'             
     e(  2 -  2) =     -9.88021  eV     1   --> A'             
     e(  3 -  3) =     -8.16357  eV     1   --> A'             
     e(  4 -  4) =     -6.53987  eV     1   --> A'             
     e(  5 -  5) =     -4.42611  eV     1   --> A''            
     e(  6 -  6) =     -4.25982  eV     1   --> A'             
     e(  7 -  7) =     -3.18890  eV     1   --> A''            
     e(  8 -  8) =     -2.51865  eV     1   --> A'             
     e(  9 -  9) =     -1.19699  eV     1   --> A'             
     e( 10 - 10) =     -0.89558  eV     1   --> A'             
     e( 11 - 11) =     -0.60592  eV     1   --> A'             
     e( 12 - 12) =      1.22912  eV     1   --> A'             
     e( 13 - 13) =      2.19416  eV     1   --> A'             
     e( 14 - 14) =      2.20495  eV     1   --> A''            
     e( 15 - 15) =      2.26625  eV     1   --> A'             
     e( 16 - 16) =      2.93862  eV     1   --> A'             

 **************************************************************************

 **************************************************************************

                    xk=(   0.30000,   0.17321,   0.00000  )

     Band symmetry, C_s (m)     point group:

     e(  1 -  1) =    -11.44849  eV     1   --> A'             
     e(  2 -  2) =     -9.90051  eV     1   --> A'             
     e(  3 -  3) =     -8.11748  eV     1   --> A'             
     e(  4 -  4) =     -6.49168  eV     1   --> A'             
     e(  5 -  5) =     -4.41373  eV     1   --> A''            
     e(  6 -  6) =     -4.27914  eV     1   --> A'             
     e(  7 -  7) =     -3.17663  eV     1   --> A''            
     e(  8 -  8) =     -2.51490  eV     1   --> A'             
     e(  9 -  9) =     -1.16039  eV     1   --> A'             
     e( 10 - 10) =     -0.89358  eV     1   --> A'             
     e( 11 - 11) =     -0.62705  eV     1   --> A'             
     e( 12 - 12) =      1.16704  eV     1   --> A'             
     e( 13 - 13) =      2.14491  eV     1   --> A''            
     e( 14 - 14) =      2.19133  eV     1   --> A'             
     e( 15 - 15) =      2.24439  eV     1   --> A'             
     e( 16 - 16) =      2.91479  eV     1   --> A'             

 **************************************************************************

 **************************************************************************

                    xk=(   0.29500,   0.17032,   0.00000  )

     Band symmetry, C_s (m)     point group:

     e(  1 -  1) =    -11.46817  eV     1   --> A'             
     e(  2 -  2) =     -9.92059  eV     1   --> A'             
     e(  3 -  3) =     -8.07101  eV     1   --> A'             
     e(  4 -  4) =     -6.44305  eV     1   --> A'             
     e(  5 -  5) =     -4.40111  eV     1   --> A''            
     e(  6 -  6) =     -4.29825  eV     1   --> A'             
     e(  7 -  7) =     -3.16414  eV     1   --> A''            
     e(  8 -  8) =     -2.51163  eV     1   --> A'             
     e(  9 -  9) =     -1.12361  eV     1   --> A'             
     e( 10 - 10) =     -0.89204  eV     1   --> A'             
     e( 11 - 11) =     -0.64791  eV     1   --> A'             
     e( 12 - 12) =      1.10593  eV     1   --> A'             
     e( 13 - 13) =      2.08525  eV     1   --> A''            
     e( 14 - 14) =      2.18299  eV     1   --> A'             
     e( 15 - 15) =      2.22279  eV     1   --> A'             
     e( 16 - 16) =      2.89045  eV     1   --> A'             

 **************************************************************************

 **************************************************************************

                    xk=(   0.29000,   0.16743,   0.00000  )

     Band symmetry, C_s (m)     point group:

     e(  1 -  1) =    -11.48762  eV     1   --> A'             
     e(  2 -  2) =     -9.94043  eV     1   --> A'             
     e(  3 -  3) =     -8.02416  eV     1   --> A'             
     e(  4 -  4) =     -6.39398  eV     1   --> A'             
     e(  5 -  5) =     -4.38825  eV     1   --> A''            
     e(  6 -  6) =     -4.31716  eV     1   --> A'             
     e(  7 -  7) =     -3.15141  eV     1   --> A''            
     e(  8 -  8) =     -2.50889  eV     1   --> A'             
     e(  9 -  9) =     -1.08666  eV     1   --> A'             
     e( 10 - 10) =     -0.89103  eV     1   --> A'             
     e( 11 - 11) =     -0.66850  eV     1   --> A'             
     e( 12 - 12) =      1.04585  eV     1   --> A'             
     e( 13 - 13) =      2.02601  eV     1   --> A''            
     e( 14 - 14) =      2.16926  eV     1   --> A'             
     e( 15 - 15) =      2.20146  eV     1   --> A'             
     e( 16 - 16) =      2.86573  eV     1   --> A'             

 **************************************************************************

 **************************************************************************

                    xk=(   0.28500,   0.16454,   0.00000  )

     Band symmetry, C_s (m)     point group:

     e(  1 -  1) =    -11.50683  eV     1   --> A'             
     e(  2 -  2) =     -9.96003  eV     1   --> A'             
     e(  3 -  3) =     -7.97695  eV     1   --> A'             
     e(  4 -  4) =     -6.34450  eV     1   --> A'             
     e(  5 -  5) =     -4.37518  eV     1   --> A''            
     e(  6 -  6) =     -4.33584  eV     1   --> A'             
     e(  7 -  7) =     -3.13847  eV     1   --> A''            
     e(  8 -  8) =     -2.50672  eV     1   --> A'             
     e(  9 -  9) =     -1.04956  eV     1   --> A'             
     e( 10 - 10) =     -0.89059  eV     1   --> A'             
     e( 11 - 11) =     -0.68881  eV     1   --> A'             
     e( 12 - 12) =      0.98686  eV     1   --> A'             
     e( 13 - 13) =      1.96719  eV     1   --> A''            
     e( 14 - 14) =      2.15045  eV     1   --> A'             
     e( 15 - 15) =      2.18042  eV     1   --> A'             
     e( 16 - 16) =      2.84087  eV     1   --> A'             

 **************************************************************************

 **************************************************************************

                    xk=(   0.28000,   0.16166,   0.00000  )

     Band symmetry, C_s (m)     point group:

     e(  1 -  1) =    -11.52580  eV     1   --> A'             
     e(  2 -  2) =     -9.97937  eV     1   --> A'             
     e(  3 -  3) =     -7.92939  eV     1   --> A'             
     e(  4 -  4) =     -6.29462  eV     1   --> A'             
     e(  5 -  5) =     -4.36188  eV     1   --> A''            
     e(  6 -  6) =     -4.35430  eV     1   --> A'             
     e(  7 -  7) =     -3.12532  eV     1   --> A''            
     e(  8 -  8) =     -2.50517  eV     1   --> A'             
     e(  9 -  9) =     -1.01235  eV     1   --> A'             
     e( 10 - 10) =     -0.89078  eV     1   --> A'             
     e( 11 - 11) =     -0.70883  eV     1   --> A'             
     e( 12 - 12) =      0.92900  eV     1   --> A'             
     e( 13 - 13) =      1.90882  eV     1   --> A''            
     e( 14 - 14) =      2.12707  eV     1   --> A'             
     e( 15 - 15) =      2.15966  eV     1   --> A'             
     e( 16 - 16) =      2.81613  eV     1   --> A'             

 **************************************************************************

 **************************************************************************

                    xk=(   0.27500,   0.15877,   0.00000  )

     Band symmetry, C_s (m)     point group:

     e(  1 -  1) =    -11.54451  eV     1   --> A'             
     e(  2 -  2) =     -9.99845  eV     1   --> A'             
     e(  3 -  3) =     -7.88150  eV     1   --> A'             
     e(  4 -  4) =     -6.24434  eV     1   --> A'             
     e(  5 -  5) =     -4.37252  eV     1   --> A'             
     e(  6 -  6) =     -4.34838  eV     1   --> A''            
     e(  7 -  7) =     -3.11196  eV     1   --> A''            
     e(  8 -  8) =     -2.50430  eV     1   --> A'             
     e(  9 -  9) =     -0.97504  eV     1   --> A'             
     e( 10 - 10) =     -0.89167  eV     1   --> A'             
     e( 11 - 11) =     -0.72854  eV     1   --> A'             
     e( 12 - 12) =      0.87236  eV     1   --> A'             
     e( 13 - 13) =      1.85092  eV     1   --> A''            
     e( 14 - 14) =      2.09975  eV     1   --> A'             
     e( 15 - 15) =      2.13919  eV     1   --> A'             
     e( 16 - 16) =      2.79171  eV     1   --> A'             

 **************************************************************************

 **************************************************************************

                    xk=(   0.27000,   0.15588,   0.00000  )

     Band symmetry, C_s (m)     point group:

     e(  1 -  1) =    -11.56297  eV     1   --> A'             
     e(  2 -  2) =    -10.01727  eV     1   --> A'             
     e(  3 -  3) =     -7.83328  eV     1   --> A'             
     e(  4 -  4) =     -6.19367  eV     1   --> A'             
     e(  5 -  5) =     -4.39049  eV     1   --> A'             
     e(  6 -  6) =     -4.33467  eV     1   --> A''            
     e(  7 -  7) =     -3.09841  eV     1   --> A''            
     e(  8 -  8) =     -2.50415  eV     1   --> A'             
     e(  9 -  9) =     -0.93767  eV     1   --> A'             
     e( 10 - 10) =     -0.89333  eV     1   --> A'             
     e( 11 - 11) =     -0.74794  eV     1   --> A'             
     e( 12 - 12) =      0.81698  eV     1   --> A'             
     e( 13 - 13) =      1.79351  eV     1   --> A''            
     e( 14 - 14) =      2.06914  eV     1   --> A'             
     e( 15 - 15) =      2.11902  eV     1   --> A'             
     e( 16 - 16) =      2.76774  eV     1   --> A'             

 **************************************************************************

 **************************************************************************

                    xk=(   0.26500,   0.15300,   0.00000  )

     Band symmetry, C_s (m)     point group:

     e(  1 -  1) =    -11.58116  eV     1   --> A'             
     e(  2 -  2) =    -10.03581  eV     1   --> A'             
     e(  3 -  3) =     -7.78476  eV     1   --> A'             
     e(  4 -  4) =     -6.14263  eV     1   --> A'             
     e(  5 -  5) =     -4.40822  eV     1   --> A'             
     e(  6 -  6) =     -4.32078  eV     1   --> A''            
     e(  7 -  7) =     -3.08468  eV     1   --> A''            
     e(  8 -  8) =     -2.50479  eV     1   --> A'             
     e(  9 -  9) =     -0.90026  eV     1   --> A'             
     e( 10 - 10) =     -0.89582  eV     1   --> A'             
     e( 11 - 11) =     -0.76702  eV     1   --> A'             
     e( 12 - 12) =      0.76292  eV     1   --> A'             
     e( 13 - 13) =      1.73660  eV     1   --> A''            
     e( 14 - 14) =      2.03591  eV     1   --> A'             
     e( 15 - 15) =      2.09916  eV     1   --> A'             
     e( 16 - 16) =      2.74429  eV     1   --> A'             

 **************************************************************************

 **************************************************************************

                    xk=(   0.26000,   0.15011,   0.00000  )

     Band symmetry, C_s (m)     point group:

     e(  1 -  1) =    -11.59907  eV     1   --> A'             
     e(  2 -  2) =    -10.05406  eV     1   --> A'             
     e(  3 -  3) =     -7.73595  eV     1   --> A'             
     e(  4 -  4) =     -6.09123  eV     1   --> A'             
     e(  5 -  5) =     -4.42569  eV     1   --> A'             
     e(  6 -  6) =     -4.30669  eV     1   --> A''            
     e(  7 -  7) =     -3.07076  eV     1   --> A''            
     e(  8 -  8) =     -2.50625  eV     1   --> A'             
     e(  9 -  9) =     -0.89921  eV     1   --> A'             
     e( 10 - 10) =     -0.86283  eV     1   --> A'             
     e( 11 - 11) =     -0.78576  eV     1   --> A'             
     e( 12 - 12) =      0.71027  eV     1   --> A'             
     e( 13 - 13) =      1.68021  eV     1   --> A''            
     e( 14 - 14) =      2.00069  eV     1   --> A'             
     e( 15 - 15) =      2.07961  eV     1   --> A'             
     e( 16 - 16) =      2.72141  eV     1   --> A'             

 **************************************************************************

 **************************************************************************

                    xk=(   0.25500,   0.14722,   0.00000  )

     Band symmetry, C_s (m)     point group:

     e(  1 -  1) =    -11.61671  eV     1   --> A'             
     e(  2 -  2) =    -10.07203  eV     1   --> A'             
     e(  3 -  3) =     -7.68685  eV     1   --> A'             
     e(  4 -  4) =     -6.03947  eV     1   --> A'             
     e(  5 -  5) =     -4.44289  eV     1   --> A'             
     e(  6 -  6) =     -4.29244  eV     1   --> A''            
     e(  7 -  7) =     -3.05668  eV     1   --> A''            
     e(  8 -  8) =     -2.50861  eV     1   --> A'             
     e(  9 -  9) =     -0.90358  eV     1   --> A'             
     e( 10 - 10) =     -0.82542  eV     1   --> A'             
     e( 11 - 11) =     -0.80416  eV     1   --> A'             
     e( 12 - 12) =      0.65907  eV     1   --> A'             
     e( 13 - 13) =      1.62437  eV     1   --> A''            
     e( 14 - 14) =      1.96405  eV     1   --> A'             
     e( 15 - 15) =      2.06037  eV     1   --> A'             
     e( 16 - 16) =      2.69910  eV     1   --> A'             

 **************************************************************************

 **************************************************************************

                    xk=(   0.25000,   0.14434,   0.00000  )

     Band symmetry, C_s (m)     point group:

     e(  1 -  1) =    -11.63406  eV     1   --> A'             
     e(  2 -  2) =    -10.08971  eV     1   --> A'             
     e(  3 -  3) =     -7.63749  eV     1   --> A'             
     e(  4 -  4) =     -5.98737  eV     1   --> A'             
     e(  5 -  5) =     -4.45983  eV     1   --> A'             
     e(  6 -  6) =     -4.27802  eV     1   --> A''            
     e(  7 -  7) =     -3.04244  eV     1   --> A''            
     e(  8 -  8) =     -2.51192  eV     1   --> A'             
     e(  9 -  9) =     -0.90901  eV     1   --> A'             
     e( 10 - 10) =     -0.82220  eV     1   --> A'             
     e( 11 - 11) =     -0.78804  eV     1   --> A'             
     e( 12 - 12) =      0.60939  eV     1   --> A'             
     e( 13 - 13) =      1.56908  eV     1   --> A''            
     e( 14 - 14) =      1.92647  eV     1   --> A'             
     e( 15 - 15) =      2.04145  eV     1   --> A'             
     e( 16 - 16) =      2.67735  eV     1   --> A'             

 **************************************************************************

 **************************************************************************

                    xk=(   0.24500,   0.14145,   0.00000  )

     Band symmetry, C_s (m)     point group:

     e(  1 -  1) =    -11.65113  eV     1   --> A'             
     e(  2 -  2) =    -10.10710  eV     1   --> A'             
     e(  3 -  3) =     -7.58787  eV     1   --> A'             
     e(  4 -  4) =     -5.93494  eV     1   --> A'             
     e(  5 -  5) =     -4.47649  eV     1   --> A'             
     e(  6 -  6) =     -4.26344  eV     1   --> A''            
     e(  7 -  7) =     -3.02804  eV     1   --> A''            
     e(  8 -  8) =     -2.51624  eV     1   --> A'             
     e(  9 -  9) =     -0.91556  eV     1   --> A'             
     e( 10 - 10) =     -0.83988  eV     1   --> A'             
     e( 11 - 11) =     -0.75074  eV     1   --> A'             
     e( 12 - 12) =      0.56131  eV     1   --> A'             
     e( 13 - 13) =      1.51437  eV     1   --> A''            
     e( 14 - 14) =      1.88841  eV     1   --> A'             
     e( 15 - 15) =      2.02285  eV     1   --> A'             
     e( 16 - 16) =      2.65614  eV     1   --> A'             

 **************************************************************************

 **************************************************************************

                    xk=(   0.24000,   0.13856,   0.00000  )

     Band symmetry, C_s (m)     point group:

     e(  1 -  1) =    -11.66790  eV     1   --> A'             
     e(  2 -  2) =    -10.12418  eV     1   --> A'             
     e(  3 -  3) =     -7.53801  eV     1   --> A'             
     e(  4 -  4) =     -5.88218  eV     1   --> A'             
     e(  5 -  5) =     -4.49287  eV     1   --> A'             
     e(  6 -  6) =     -4.24872  eV     1   --> A''            
     e(  7 -  7) =     -3.01352  eV     1   --> A''            
     e(  8 -  8) =     -2.52162  eV     1   --> A'             
     e(  9 -  9) =     -0.92331  eV     1   --> A'             
     e( 10 - 10) =     -0.85719  eV     1   --> A'             
     e( 11 - 11) =     -0.71353  eV     1   --> A'             
     e( 12 - 12) =      0.51488  eV     1   --> A'             
     e( 13 - 13) =      1.46025  eV     1   --> A''            
     e( 14 - 14) =      1.85023  eV     1   --> A'             
     e( 15 - 15) =      2.00458  eV     1   --> A'             
     e( 16 - 16) =      2.63547  eV     1   --> A'             

 **************************************************************************

 **************************************************************************

                    xk=(   0.23500,   0.13568,   0.00000  )

     Band symmetry, C_s (m)     point group:

     e(  1 -  1) =    -11.68437  eV     1   --> A'             
     e(  2 -  2) =    -10.14095  eV     1   --> A'             
     e(  3 -  3) =     -7.48793  eV     1   --> A'             
     e(  4 -  4) =     -5.82911  eV     1   --> A'             
     e(  5 -  5) =     -4.50897  eV     1   --> A'             
     e(  6 -  6) =     -4.23386  eV     1   --> A''            
     e(  7 -  7) =     -2.99886  eV     1   --> A''            
     e(  8 -  8) =     -2.52813  eV     1   --> A'             
     e(  9 -  9) =     -0.93231  eV     1   --> A'             
     e( 10 - 10) =     -0.87414  eV     1   --> A'             
     e( 11 - 11) =     -0.67646  eV     1   --> A'             
     e( 12 - 12) =      0.47018  eV     1   --> A'             
     e( 13 - 13) =      1.40675  eV     1   --> A''            
     e( 14 - 14) =      1.81227  eV     1   --> A'             
     e( 15 - 15) =      1.98664  eV     1   --> A'             
     e( 16 - 16) =      2.61531  eV     1   --> A'             

 **************************************************************************

 **************************************************************************

                    xk=(   0.23000,   0.13279,   0.00000  )

     Band symmetry, C_s (m)     point group:

     e(  1 -  1) =    -11.70054  eV     1   --> A'             
     e(  2 -  2) =    -10.15742  eV     1   --> A'             
     e(  3 -  3) =     -7.43763  eV     1   --> A'             
     e(  4 -  4) =     -5.77574  eV     1   --> A'             
     e(  5 -  5) =     -4.52478  eV     1   --> A'             
     e(  6 -  6) =     -4.21888  eV     1   --> A''            
     e(  7 -  7) =     -2.98409  eV     1   --> A''            
     e(  8 -  8) =     -2.53581  eV     1   --> A'             
     e(  9 -  9) =     -0.94260  eV     1   --> A'             
     e( 10 - 10) =     -0.89077  eV     1   --> A'             
     e( 11 - 11) =     -0.63955  eV     1   --> A'             
     e( 12 - 12) =      0.42727  eV     1   --> A'             
     e( 13 - 13) =      1.35387  eV     1   --> A''            
     e( 14 - 14) =      1.77480  eV     1   --> A'             
     e( 15 - 15) =      1.96904  eV     1   --> A'             
     e( 16 - 16) =      2.59564  eV     1   --> A'             

 **************************************************************************

 **************************************************************************

                    xk=(   0.22500,   0.12990,   0.00000  )

     Band symmetry, C_s (m)     point group:

     e(  1 -  1) =    -11.71641  eV     1   --> A'             
     e(  2 -  2) =    -10.17357  eV     1   --> A'             
     e(  3 -  3) =     -7.38713  eV     1   --> A'             
     e(  4 -  4) =     -5.72207  eV     1   --> A'             
     e(  5 -  5) =     -4.54029  eV     1   --> A'             
     e(  6 -  6) =     -4.20379  eV     1   --> A''            
     e(  7 -  7) =     -2.96922  eV     1   --> A''            
     e(  8 -  8) =     -2.54471  eV     1   --> A'             
     e(  9 -  9) =     -0.95421  eV     1   --> A'             
     e( 10 - 10) =     -0.90711  eV     1   --> A'             
     e( 11 - 11) =     -0.60285  eV     1   --> A'             
     e( 12 - 12) =      0.38621  eV     1   --> A'             
     e( 13 - 13) =      1.30164  eV     1   --> A''            
     e( 14 - 14) =      1.73806  eV     1   --> A'             
     e( 15 - 15) =      1.95177  eV     1   --> A'             
     e( 16 - 16) =      2.57645  eV     1   --> A'             

 **************************************************************************

 **************************************************************************

                    xk=(   0.22000,   0.12702,   0.00000  )

     Band symmetry, C_s (m)     point group:

     e(  1 -  1) =    -11.73196  eV     1   --> A'             
     e(  2 -  2) =    -10.18940  eV     1   --> A'             
     e(  3 -  3) =     -7.33645  eV     1   --> A'             
     e(  4 -  4) =     -5.66811  eV     1   --> A'             
     e(  5 -  5) =     -4.55551  eV     1   --> A'             
     e(  6 -  6) =     -4.18860  eV     1   --> A''            
     e(  7 -  7) =     -2.95425  eV     1   --> A''            
     e(  8 -  8) =     -2.55490  eV     1   --> A'             
     e(  9 -  9) =     -0.96711  eV     1   --> A'             
     e( 10 - 10) =     -0.92323  eV     1   --> A'             
     e( 11 - 11) =     -0.56638  eV     1   --> A'             
     e( 12 - 12) =      0.34708  eV     1   --> A'             
     e( 13 - 13) =      1.25007  eV     1   --> A''            
     e( 14 - 14) =      1.70227  eV     1   --> A'             
     e( 15 - 15) =      1.93484  eV     1   --> A'             
     e( 16 - 16) =      2.55774  eV     1   --> A'             

 **************************************************************************

 **************************************************************************

                    xk=(   0.21500,   0.12413,   0.00000  )

     Band symmetry, C_s (m)     point group:

     e(  1 -  1) =    -11.74720  eV     1   --> A'             
     e(  2 -  2) =    -10.20491  eV     1   --> A'             
     e(  3 -  3) =     -7.28559  eV     1   --> A'             
     e(  4 -  4) =     -5.61388  eV     1   --> A'             
     e(  5 -  5) =     -4.57043  eV     1   --> A'             
     e(  6 -  6) =     -4.17333  eV     1   --> A''            
     e(  7 -  7) =     -2.93921  eV     1   --> A''            
     e(  8 -  8) =     -2.56641  eV     1   --> A'             
     e(  9 -  9) =     -0.98131  eV     1   --> A'             
     e( 10 - 10) =     -0.93921  eV     1   --> A'             
     e( 11 - 11) =     -0.53021  eV     1   --> A'             
     e( 12 - 12) =      0.30994  eV     1   --> A'             
     e( 13 - 13) =      1.19918  eV     1   --> A''            
     e( 14 - 14) =      1.66760  eV     1   --> A'             
     e( 15 - 15) =      1.91825  eV     1   --> A'             
     e( 16 - 16) =      2.53948  eV     1   --> A'             

 **************************************************************************

 **************************************************************************

                    xk=(   0.21000,   0.12124,   0.00000  )

     Band symmetry, C_s (m)     point group:

     e(  1 -  1) =    -11.76212  eV     1   --> A'             
     e(  2 -  2) =    -10.22009  eV     1   --> A'             
     e(  3 -  3) =     -7.23459  eV     1   --> A'             
     e(  4 -  4) =     -5.55938  eV     1   --> A'             
     e(  5 -  5) =     -4.58504  eV     1   --> A'             
     e(  6 -  6) =     -4.15798  eV     1   --> A''            
     e(  7 -  7) =     -2.92410  eV     1   --> A''            
     e(  8 -  8) =     -2.57928  eV     1   --> A'             
     e(  9 -  9) =     -0.99681  eV     1   --> A'             
     e( 10 - 10) =     -0.95507  eV     1   --> A'             
     e( 11 - 11) =     -0.49438  eV     1   --> A'             
     e( 12 - 12) =      0.27485  eV     1   --> A'             
     e( 13 - 13) =      1.14899  eV     1   --> A''            
     e( 14 - 14) =      1.63420  eV     1   --> A'             
     e( 15 - 15) =      1.90201  eV     1   --> A'             
     e( 16 - 16) =      2.51737  eV     1   --> A''            

 **************************************************************************

 **************************************************************************

                    xk=(   0.20500,   0.11836,   0.00000  )

     Band symmetry, C_s (m)     point group:

     e(  1 -  1) =    -11.77672  eV     1   --> A'             
     e(  2 -  2) =    -10.23495  eV     1   --> A'             
     e(  3 -  3) =     -7.18344  eV     1   --> A'             
     e(  4 -  4) =     -5.50463  eV     1   --> A'             
     e(  5 -  5) =     -4.59935  eV     1   --> A'             
     e(  6 -  6) =     -4.14258  eV     1   --> A''            
     e(  7 -  7) =     -2.90894  eV     1   --> A''            
     e(  8 -  8) =     -2.59355  eV     1   --> A'             
     e(  9 -  9) =     -1.01367  eV     1   --> A'             
     e( 10 - 10) =     -0.97081  eV     1   --> A'             
     e( 11 - 11) =     -0.45894  eV     1   --> A'             
     e( 12 - 12) =      0.24189  eV     1   --> A'             
     e( 13 - 13) =      1.09952  eV     1   --> A''            
     e( 14 - 14) =      1.60220  eV     1   --> A'             
     e( 15 - 15) =      1.88612  eV     1   --> A'             
     e( 16 - 16) =      2.46814  eV     1   --> A''            

 **************************************************************************

 **************************************************************************

                    xk=(   0.20000,   0.11547,   0.00000  )

     Band symmetry, C_s (m)     point group:

     e(  1 -  1) =    -11.79100  eV     1   --> A'             
     e(  2 -  2) =    -10.24948  eV     1   --> A'             
     e(  3 -  3) =     -7.13217  eV     1   --> A'             
     e(  4 -  4) =     -5.44963  eV     1   --> A'             
     e(  5 -  5) =     -4.61335  eV     1   --> A'             
     e(  6 -  6) =     -4.12713  eV     1   --> A''            
     e(  7 -  7) =     -2.89375  eV     1   --> A''            
     e(  8 -  8) =     -2.60925  eV     1   --> A'             
     e(  9 -  9) =     -1.03199  eV     1   --> A'             
     e( 10 - 10) =     -0.98637  eV     1   --> A'             
     e( 11 - 11) =     -0.42398  eV     1   --> A'             
     e( 12 - 12) =      0.21112  eV     1   --> A'             
[...]
     e( 13 - 13) =      2.85313  eV     1   --> A'             
     e( 14 - 14) =      3.20154  eV     1   --> A''            
     e( 15 - 15) =      3.65417  eV     1   --> A''            
     e( 16 - 16) =      3.71811  eV     1   --> A'             

 **************************************************************************

 **************************************************************************

                    xk=(   0.47667,   0.82561,   0.00000  )

     Band symmetry, C_s (m)     point group:

     e(  1 -  1) =    -10.76095  eV     1   --> A''            
     e(  2 -  2) =     -9.34458  eV     1   --> A'             
     e(  3 -  3) =     -9.19461  eV     1   --> A''            
     e(  4 -  4) =     -7.76751  eV     1   --> A'             
     e(  5 -  5) =     -4.76054  eV     1   --> A'             
     e(  6 -  6) =     -3.61268  eV     1   --> A''            
     e(  7 -  7) =     -3.51204  eV     1   --> A'             
     e(  8 -  8) =     -2.66342  eV     1   --> A'             
     e(  9 -  9) =     -2.06936  eV     1   --> A'             
     e( 10 - 10) =     -0.89110  eV     1   --> A'             
     e( 11 - 11) =      0.13426  eV     1   --> A''            
     e( 12 - 12) =      1.31840  eV     1   --> A'             
     e( 13 - 13) =      2.87159  eV     1   --> A'             
     e( 14 - 14) =      3.21999  eV     1   --> A''            
     e( 15 - 15) =      3.66490  eV     1   --> A''            
     e( 16 - 16) =      3.71372  eV     1   --> A'             

 **************************************************************************

 **************************************************************************

                    xk=(   0.47833,   0.82850,   0.00000  )

     Band symmetry, C_s (m)     point group:

     e(  1 -  1) =    -10.76287  eV     1   --> A''            
     e(  2 -  2) =     -9.34271  eV     1   --> A'             
     e(  3 -  3) =     -9.19655  eV     1   --> A''            
     e(  4 -  4) =     -7.76572  eV     1   --> A'             
     e(  5 -  5) =     -4.74977  eV     1   --> A'             
     e(  6 -  6) =     -3.61448  eV     1   --> A''            
     e(  7 -  7) =     -3.50239  eV     1   --> A'             
     e(  8 -  8) =     -2.67430  eV     1   --> A'             
     e(  9 -  9) =     -2.07461  eV     1   --> A'             
     e( 10 - 10) =     -0.90749  eV     1   --> A'             
     e( 11 - 11) =      0.13246  eV     1   --> A''            
     e( 12 - 12) =      1.31872  eV     1   --> A'             
     e( 13 - 13) =      2.88948  eV     1   --> A'             
     e( 14 - 14) =      3.23693  eV     1   --> A''            
     e( 15 - 15) =      3.67693  eV     1   --> A''            
     e( 16 - 16) =      3.70911  eV     1   --> A'             

 **************************************************************************

 **************************************************************************

                    xk=(   0.48000,   0.83138,   0.00000  )

     Band symmetry, C_s (m)     point group:

     e(  1 -  1) =    -10.76464  eV     1   --> A''            
     e(  2 -  2) =     -9.34098  eV     1   --> A'             
     e(  3 -  3) =     -9.19836  eV     1   --> A''            
     e(  4 -  4) =     -7.76408  eV     1   --> A'             
     e(  5 -  5) =     -4.73962  eV     1   --> A'             
     e(  6 -  6) =     -3.61615  eV     1   --> A''            
     e(  7 -  7) =     -3.49333  eV     1   --> A'             
     e(  8 -  8) =     -2.68477  eV     1   --> A'             
     e(  9 -  9) =     -2.07926  eV     1   --> A'             
     e( 10 - 10) =     -0.92280  eV     1   --> A'             
     e( 11 - 11) =      0.13079  eV     1   --> A''            
     e( 12 - 12) =      1.31901  eV     1   --> A'             
     e( 13 - 13) =      2.90672  eV     1   --> A'             
     e( 14 - 14) =      3.25233  eV     1   --> A''            
     e( 15 - 15) =      3.69023  eV     1   --> A''            
     e( 16 - 16) =      3.70434  eV     1   --> A'             

 **************************************************************************

 **************************************************************************

                    xk=(   0.48167,   0.83427,   0.00000  )

     Band symmetry, C_s (m)     point group:

     e(  1 -  1) =    -10.76628  eV     1   --> A''            
     e(  2 -  2) =     -9.33939  eV     1   --> A'             
     e(  3 -  3) =     -9.20002  eV     1   --> A''            
     e(  4 -  4) =     -7.76256  eV     1   --> A'             
     e(  5 -  5) =     -4.73012  eV     1   --> A'             
     e(  6 -  6) =     -3.61768  eV     1   --> A''            
     e(  7 -  7) =     -3.48487  eV     1   --> A'             
     e(  8 -  8) =     -2.69473  eV     1   --> A'             
     e(  9 -  9) =     -2.08337  eV     1   --> A'             
     e( 10 - 10) =     -0.93700  eV     1   --> A'             
     e( 11 - 11) =      0.12925  eV     1   --> A''            
     e( 12 - 12) =      1.31928  eV     1   --> A'             
     e( 13 - 13) =      2.92321  eV     1   --> A'             
     e( 14 - 14) =      3.26616  eV     1   --> A''            
     e( 15 - 15) =      3.69945  eV     1   --> A'             
     e( 16 - 16) =      3.70475  eV     1   --> A''            

 **************************************************************************

 **************************************************************************

                    xk=(   0.48333,   0.83716,   0.00000  )

     Band symmetry, C_s (m)     point group:

     e(  1 -  1) =    -10.76777  eV     1   --> A''            
     e(  2 -  2) =     -9.33794  eV     1   --> A'             
     e(  3 -  3) =     -9.20153  eV     1   --> A''            
     e(  4 -  4) =     -7.76118  eV     1   --> A'             
     e(  5 -  5) =     -4.72131  eV     1   --> A'             
     e(  6 -  6) =     -3.61908  eV     1   --> A''            
     e(  7 -  7) =     -3.47705  eV     1   --> A'             
     e(  8 -  8) =     -2.70410  eV     1   --> A'             
     e(  9 -  9) =     -2.08699  eV     1   --> A'             
     e( 10 - 10) =     -0.95007  eV     1   --> A'             
     e( 11 - 11) =      0.12785  eV     1   --> A''            
     e( 12 - 12) =      1.31952  eV     1   --> A'             
     e( 13 - 13) =      2.93884  eV     1   --> A'             
     e( 14 - 14) =      3.27845  eV     1   --> A''            
     e( 15 - 15) =      3.69451  eV     1   --> A'             
     e( 16 - 16) =      3.72035  eV     1   --> A''            

 **************************************************************************

 **************************************************************************

                    xk=(   0.48500,   0.84004,   0.00000  )

     Band symmetry, C_s (m)     point group:

     e(  1 -  1) =    -10.76912  eV     1   --> A''            
     e(  2 -  2) =     -9.33663  eV     1   --> A'             
     e(  3 -  3) =     -9.20290  eV     1   --> A''            
     e(  4 -  4) =     -7.75993  eV     1   --> A'             
     e(  5 -  5) =     -4.71323  eV     1   --> A'             
     e(  6 -  6) =     -3.62035  eV     1   --> A''            
     e(  7 -  7) =     -3.46988  eV     1   --> A'             
     e(  8 -  8) =     -2.71282  eV     1   --> A'             
     e(  9 -  9) =     -2.09014  eV     1   --> A'             
     e( 10 - 10) =     -0.96198  eV     1   --> A'             
     e( 11 - 11) =      0.12658  eV     1   --> A''            
     e( 12 - 12) =      1.31974  eV     1   --> A'             
     e( 13 - 13) =      2.95352  eV     1   --> A'             
     e( 14 - 14) =      3.28923  eV     1   --> A''            
     e( 15 - 15) =      3.68960  eV     1   --> A'             
     e( 16 - 16) =      3.73685  eV     1   --> A''            

 **************************************************************************

 **************************************************************************

                    xk=(   0.48667,   0.84293,   0.00000  )

     Band symmetry, C_s (m)     point group:

     e(  1 -  1) =    -10.77032  eV     1   --> A''            
     e(  2 -  2) =     -9.33546  eV     1   --> A'             
     e(  3 -  3) =     -9.20413  eV     1   --> A''            
     e(  4 -  4) =     -7.75882  eV     1   --> A'             
     e(  5 -  5) =     -4.70589  eV     1   --> A'             
     e(  6 -  6) =     -3.62148  eV     1   --> A''            
     e(  7 -  7) =     -3.46340  eV     1   --> A'             
     e(  8 -  8) =     -2.72081  eV     1   --> A'             
     e(  9 -  9) =     -2.09287  eV     1   --> A'             
     e( 10 - 10) =     -0.97271  eV     1   --> A'             
     e( 11 - 11) =      0.12545  eV     1   --> A''            
     e( 12 - 12) =      1.31994  eV     1   --> A'             
     e( 13 - 13) =      2.96712  eV     1   --> A'             
     e( 14 - 14) =      3.29857  eV     1   --> A''            
     e( 15 - 15) =      3.68480  eV     1   --> A'             
     e( 16 - 16) =      3.75400  eV     1   --> A''            

 **************************************************************************

 **************************************************************************

                    xk=(   0.48833,   0.84582,   0.00000  )

     Band symmetry, C_s (m)     point group:

     e(  1 -  1) =    -10.77139  eV     1   --> A''            
     e(  2 -  2) =     -9.33442  eV     1   --> A'             
     e(  3 -  3) =     -9.20521  eV     1   --> A''            
     e(  4 -  4) =     -7.75783  eV     1   --> A'             
     e(  5 -  5) =     -4.69935  eV     1   --> A'             
     e(  6 -  6) =     -3.62248  eV     1   --> A''            
     e(  7 -  7) =     -3.45763  eV     1   --> A'             
     e(  8 -  8) =     -2.72800  eV     1   --> A'             
     e(  9 -  9) =     -2.09521  eV     1   --> A'             
     e( 10 - 10) =     -0.98224  eV     1   --> A'             
     e( 11 - 11) =      0.12445  eV     1   --> A''            
     e( 12 - 12) =      1.32011  eV     1   --> A'             
     e( 13 - 13) =      2.97951  eV     1   --> A'             
     e( 14 - 14) =      3.30655  eV     1   --> A''            
     e( 15 - 15) =      3.68022  eV     1   --> A'             
     e( 16 - 16) =      3.77149  eV     1   --> A''            

 **************************************************************************

 **************************************************************************

                    xk=(   0.49000,   0.84870,   0.00000  )

     Band symmetry, C_s (m)     point group:

     e(  1 -  1) =    -10.77231  eV     1   --> A''            
     e(  2 -  2) =     -9.33353  eV     1   --> A'             
     e(  3 -  3) =     -9.20615  eV     1   --> A''            
     e(  4 -  4) =     -7.75698  eV     1   --> A'             
     e(  5 -  5) =     -4.69361  eV     1   --> A'             
     e(  6 -  6) =     -3.62335  eV     1   --> A''            
     e(  7 -  7) =     -3.45258  eV     1   --> A'             
     e(  8 -  8) =     -2.73435  eV     1   --> A'             
     e(  9 -  9) =     -2.09718  eV     1   --> A'             
     e( 10 - 10) =     -0.99053  eV     1   --> A'             
     e( 11 - 11) =      0.12358  eV     1   --> A''            
     e( 12 - 12) =      1.32026  eV     1   --> A'             
     e( 13 - 13) =      2.99059  eV     1   --> A'             
     e( 14 - 14) =      3.31325  eV     1   --> A''            
     e( 15 - 15) =      3.67595  eV     1   --> A'             
     e( 16 - 16) =      3.78891  eV     1   --> A''            

 **************************************************************************

 **************************************************************************

                    xk=(   0.49167,   0.85159,   0.00000  )

     Band symmetry, C_s (m)     point group:

     e(  1 -  1) =    -10.77309  eV     1   --> A''            
     e(  2 -  2) =     -9.33277  eV     1   --> A'             
     e(  3 -  3) =     -9.20694  eV     1   --> A''            
     e(  4 -  4) =     -7.75626  eV     1   --> A'             
     e(  5 -  5) =     -4.68871  eV     1   --> A'             
     e(  6 -  6) =     -3.62408  eV     1   --> A''            
     e(  7 -  7) =     -3.44828  eV     1   --> A'             
     e(  8 -  8) =     -2.73981  eV     1   --> A'             
     e(  9 -  9) =     -2.09881  eV     1   --> A'             
     e( 10 - 10) =     -0.99759  eV     1   --> A'             
     e( 11 - 11) =      0.12284  eV     1   --> A''            
     e( 12 - 12) =      1.32038  eV     1   --> A'             
     e( 13 - 13) =      3.00022  eV     1   --> A'             
     e( 14 - 14) =      3.31876  eV     1   --> A''            
     e( 15 - 15) =      3.67210  eV     1   --> A'             
     e( 16 - 16) =      3.80576  eV     1   --> A''            

 **************************************************************************

 **************************************************************************

                    xk=(   0.49333,   0.85448,   0.00000  )

     Band symmetry, C_s (m)     point group:

     e(  1 -  1) =    -10.77373  eV     1   --> A''            
     e(  2 -  2) =     -9.33215  eV     1   --> A'             
     e(  3 -  3) =     -9.20759  eV     1   --> A''            
     e(  4 -  4) =     -7.75567  eV     1   --> A'             
     e(  5 -  5) =     -4.68467  eV     1   --> A'             
     e(  6 -  6) =     -3.62468  eV     1   --> A''            
     e(  7 -  7) =     -3.44474  eV     1   --> A'             
     e(  8 -  8) =     -2.74434  eV     1   --> A'             
     e(  9 -  9) =     -2.10012  eV     1   --> A'             
     e( 10 - 10) =     -1.00338  eV     1   --> A'             
     e( 11 - 11) =      0.12224  eV     1   --> A''            
     e( 12 - 12) =      1.32048  eV     1   --> A'             
     e( 13 - 13) =      3.00829  eV     1   --> A'             
     e( 14 - 14) =      3.32314  eV     1   --> A''            
     e( 15 - 15) =      3.66877  eV     1   --> A'             
     e( 16 - 16) =      3.82140  eV     1   --> A''            

 **************************************************************************

 **************************************************************************

                    xk=(   0.49500,   0.85737,   0.00000  )

     Band symmetry, C_s (m)     point group:

     e(  1 -  1) =    -10.77423  eV     1   --> A''            
     e(  2 -  2) =     -9.33167  eV     1   --> A'             
     e(  3 -  3) =     -9.20810  eV     1   --> A''            
     e(  4 -  4) =     -7.75522  eV     1   --> A'             
     e(  5 -  5) =     -4.68151  eV     1   --> A'             
     e(  6 -  6) =     -3.62515  eV     1   --> A''            
     e(  7 -  7) =     -3.44197  eV     1   --> A'             
     e(  8 -  8) =     -2.74789  eV     1   --> A'             
     e(  9 -  9) =     -2.10112  eV     1   --> A'             
     e( 10 - 10) =     -1.00790  eV     1   --> A'             
     e( 11 - 11) =      0.12178  eV     1   --> A''            
     e( 12 - 12) =      1.32056  eV     1   --> A'             
     e( 13 - 13) =      3.01469  eV     1   --> A'             
     e( 14 - 14) =      3.32648  eV     1   --> A''            
     e( 15 - 15) =      3.66607  eV     1   --> A'             
     e( 16 - 16) =      3.83504  eV     1   --> A''            

 **************************************************************************

 **************************************************************************

                    xk=(   0.49667,   0.86025,   0.00000  )

     Band symmetry, C_s (m)     point group:

     e(  1 -  1) =    -10.77459  eV     1   --> A''            
     e(  2 -  2) =     -9.33133  eV     1   --> A'             
     e(  3 -  3) =     -9.20846  eV     1   --> A''            
     e(  4 -  4) =     -7.75489  eV     1   --> A'             
     e(  5 -  5) =     -4.67924  eV     1   --> A'             
     e(  6 -  6) =     -3.62548  eV     1   --> A''            
     e(  7 -  7) =     -3.43998  eV     1   --> A'             
     e(  8 -  8) =     -2.75045  eV     1   --> A'             
     e(  9 -  9) =     -2.10183  eV     1   --> A'             
     e( 10 - 10) =     -1.01114  eV     1   --> A'             
     e( 11 - 11) =      0.12144  eV     1   --> A''            
     e( 12 - 12) =      1.32062  eV     1   --> A'             
     e( 13 - 13) =      3.01933  eV     1   --> A'             
     e( 14 - 14) =      3.32882  eV     1   --> A''            
     e( 15 - 15) =      3.66407  eV     1   --> A'             
     e( 16 - 16) =      3.84578  eV     1   --> A''            

 **************************************************************************

 **************************************************************************

                    xk=(   0.49833,   0.86314,   0.00000  )

     Band symmetry, C_s (m)     point group:

     e(  1 -  1) =    -10.77480  eV     1   --> A''            
     e(  2 -  2) =     -9.33112  eV     1   --> A'             
     e(  3 -  3) =     -9.20867  eV     1   --> A''            
     e(  4 -  4) =     -7.75469  eV     1   --> A'             
     e(  5 -  5) =     -4.67788  eV     1   --> A'             
     e(  6 -  6) =     -3.62568  eV     1   --> A''            
     e(  7 -  7) =     -3.43879  eV     1   --> A'             
     e(  8 -  8) =     -2.75199  eV     1   --> A'             
     e(  9 -  9) =     -2.10225  eV     1   --> A'             
     e( 10 - 10) =     -1.01308  eV     1   --> A'             
     e( 11 - 11) =      0.12124  eV     1   --> A''            
     e( 12 - 12) =      1.32065  eV     1   --> A'             
     e( 13 - 13) =      3.02214  eV     1   --> A'             
     e( 14 - 14) =      3.33021  eV     1   --> A''            
     e( 15 - 15) =      3.66284  eV     1   --> A'             
     e( 16 - 16) =      3.85272  eV     1   --> A''            

 **************************************************************************

 **************************************************************************

                    xk=(   0.50000,   0.86603,   0.00000  )

     point group C_2v (mm2) 
     there are  4 classes
     the character table:

       E     C2    s_xz  s_yz 
A_1    1.00  1.00  1.00  1.00
A_2    1.00  1.00 -1.00 -1.00
B_1    1.00 -1.00  1.00 -1.00
B_2    1.00 -1.00 -1.00  1.00

     the symmetry operations in each class:
     E        1
     C2       2
     s_xz     3
     s_yz     4

     Band symmetry, C_2v (mm2)  point group:

     e(  1 -  1) =    -10.77487  eV     1   --> B_2  D_4  S_4  
     e(  2 -  2) =     -9.33105  eV     1   --> A_1  D_1  S_1  
     e(  3 -  3) =     -9.20874  eV     1   --> B_2  D_4  S_4  
     e(  4 -  4) =     -7.75463  eV     1   --> A_1  D_1  S_1  
     e(  5 -  5) =     -4.67742  eV     1   --> B_1  D_3  S_3  
     e(  6 -  6) =     -3.62575  eV     1   --> B_2  D_4  S_4  
     e(  7 -  7) =     -3.43839  eV     1   --> B_1  D_3  S_3  
     e(  8 -  8) =     -2.75250  eV     1   --> A_1  D_1  S_1  
     e(  9 -  9) =     -2.10239  eV     1   --> A_1  D_1  S_1  
     e( 10 - 10) =     -1.01373  eV     1   --> A_1  D_1  S_1  
     e( 11 - 11) =      0.12117  eV     1   --> B_2  D_4  S_4  
     e( 12 - 12) =      1.32066  eV     1   --> A_1  D_1  S_1  
     e( 13 - 13) =      3.02308  eV     1   --> A_1  D_1  S_1  
     e( 14 - 14) =      3.33067  eV     1   --> B_2  D_4  S_4  
     e( 15 - 15) =      3.66243  eV     1   --> B_1  D_3  S_3  
     e( 16 - 16) =      3.85512  eV     1   --> B_2  D_4  S_4  

 **************************************************************************
