
     Program PWSCF v.5.0.2 (svn rev. 9656) starts on 26May2015 at 12: 6:46 

     This program is part of the open-source Quantum ESPRESSO suite
     for quantum simulation of materials; please cite
         "P. Giannozzi et al., J. Phys.:Condens. Matter 21 395502 (2009);
          URL http://www.quantum-espresso.org", 
     in publications or presentations arising from this work. More details at
     http://www.quantum-espresso.org/quote.php

     Parallel version (MPI), running on    14 processors
     R & G space division:  proc/nbgrp/npool/nimage =      14

     Current dimensions of program PWSCF are:
     Max number of different atomic species (ntypx) = 10
     Max number of k-points (npk) =  40000
     Max angular momentum in pseudopotentials (lmaxx) =  3
     Waiting for input...
     Reading input from standard input
Warning: card &IONS ignored
Warning: card ION_DYNAMICS            = 'BFGS' ignored
Warning: card / ignored

     Subspace diagonalization in iterative solution of the eigenvalue problem:
     scalapack distributed-memory algorithm (size of sub-group:  2*  2 procs)

 
     Parallelization info
     --------------------
     sticks:   dense  smooth     PW     G-vecs:    dense   smooth      PW
     Min          69      69     20                17713    17713    2704
     Max          70      70     21                17747    17747    2731
     Sum         967     967    283               248137   248137   37961
 


     bravais-lattice index     =            4
     lattice parameter (alat)  =       8.4411  a.u.
     unit-cell volume          =    5208.6170 (a.u.)^3
     number of atoms/cell      =            2
     number of atomic types    =            1
     number of electrons       =         8.00
     number of Kohn-Sham states=           14
     kinetic-energy cutoff     =      50.0000  Ry
     charge density cutoff     =     200.0000  Ry
     convergence threshold     =      1.0E-08
     mixing beta               =       0.7000
     number of iterations used =            8  plain     mixing
     Exchange-correlation      =  SLA  PZ   NOGX NOGC ( 1 1 0 0 0)
     EXX-fraction              =        0.00

     celldm(1)=   8.441065  celldm(2)=   0.000000  celldm(3)=  10.000000
     celldm(4)=   0.000000  celldm(5)=   0.000000  celldm(6)=   0.000000

     crystal axes: (cart. coord. in units of alat)
               a(1) = (   1.000000   0.000000   0.000000 )  
               a(2) = (  -0.500000   0.866025   0.000000 )  
               a(3) = (   0.000000   0.000000  10.000000 )  

     reciprocal axes: (cart. coord. in units 2 pi/alat)
               b(1) = (  1.000000  0.577350  0.000000 )  
               b(2) = (  0.000000  1.154701  0.000000 )  
               b(3) = (  0.000000  0.000000  0.100000 )  


     PseudoPot. # 1 for Sn read from file:
     /user/antwerpen/201/vsc20155/DFT/QEspresso/pseudopotentials/Sn.pz-bhs.UPF
     MD5 check sum: ef254960ae38efa59c08c9b90b3bf6f4
     Pseudo is Norm-conserving, Zval =  4.0
     Generated by new atomic code, or converted to UPF format
     Using radial grid of  601 points,  2 beta functions with: 
                l(1) =   0
                l(2) =   1

     atomic species   valence    mass     pseudopotential
        Sn             4.00   118.71000     Sn( 1.00)

     No symmetry found
          (note:  1 additional sym.ops. were found but ignored
           their fractional translations are incommensurate with FFT grid)

                                    s                        frac. trans.

      isym =  1     identity                                     

 cryst.   s( 1) = (     1          0          0      )
                  (     0          1          0      )
                  (     0          0          1      )

 cart.    s( 1) = (  1.0000000  0.0000000  0.0000000 )
                  (  0.0000000  1.0000000  0.0000000 )
                  (  0.0000000  0.0000000  1.0000000 )


     point group C_1 (1)    
     there are  1 classes
     the character table:

       E    
A      1.00

     the symmetry operations in each class:
     E        1

   Cartesian axes

     site n.     atom                  positions (alat units)
         1           Sn  tau(   1) = (   0.0249566   0.6246443   0.9784327  )
         2           Sn  tau(   2) = (   0.5249650   0.3338638   0.7089206  )

   Crystallographic axes

     site n.     atom                  positions (cryst. coord.)
         1           Sn  tau(   1) = (  0.3855952  0.7212771  0.0978433  )
         2           Sn  tau(   2) = (  0.7177213  0.3855128  0.0708921  )

     number of k points=   202  Methfessel-Paxton smearing, width (Ry)=  0.0200
                       cart. coord. in units 2pi/alat
        k(    1) = (   0.0000000   0.0000000   0.0000000), wk =   0.0050000
        k(    2) = (   0.0000000   0.0577350   0.0000000), wk =   0.0100000
        k(    3) = (   0.0000000   0.1154701   0.0000000), wk =   0.0100000
        k(    4) = (   0.0000000   0.1732051   0.0000000), wk =   0.0100000
        k(    5) = (   0.0000000   0.2309401   0.0000000), wk =   0.0100000
        k(    6) = (   0.0000000   0.2886751   0.0000000), wk =   0.0100000
        k(    7) = (   0.0000000   0.3464102   0.0000000), wk =   0.0100000
        k(    8) = (   0.0000000   0.4041452   0.0000000), wk =   0.0100000
        k(    9) = (   0.0000000   0.4618802   0.0000000), wk =   0.0100000
        k(   10) = (   0.0000000   0.5196152   0.0000000), wk =   0.0100000
        k(   11) = (   0.0000000  -0.5773503   0.0000000), wk =   0.0050000
        k(   12) = (   0.0500000   0.0866025   0.0000000), wk =   0.0100000
        k(   13) = (   0.0500000   0.1443376   0.0000000), wk =   0.0100000
        k(   14) = (   0.0500000   0.2020726   0.0000000), wk =   0.0100000
        k(   15) = (   0.0500000   0.2598076   0.0000000), wk =   0.0100000
        k(   16) = (   0.0500000   0.3175426   0.0000000), wk =   0.0100000
        k(   17) = (   0.0500000   0.3752777   0.0000000), wk =   0.0100000
        k(   18) = (   0.0500000   0.4330127   0.0000000), wk =   0.0100000
        k(   19) = (   0.0500000   0.4907477   0.0000000), wk =   0.0100000
        k(   20) = (   0.0500000   0.5484828   0.0000000), wk =   0.0100000
        k(   21) = (   0.1000000   0.1732051   0.0000000), wk =   0.0100000
        k(   22) = (   0.1000000   0.2309401   0.0000000), wk =   0.0100000
        k(   23) = (   0.1000000   0.2886751   0.0000000), wk =   0.0100000
        k(   24) = (   0.1000000   0.3464102   0.0000000), wk =   0.0100000
        k(   25) = (   0.1000000   0.4041452   0.0000000), wk =   0.0100000
        k(   26) = (   0.1000000   0.4618802   0.0000000), wk =   0.0100000
        k(   27) = (   0.1000000   0.5196152   0.0000000), wk =   0.0100000
        k(   28) = (   0.1000000   0.5773503   0.0000000), wk =   0.0100000
        k(   29) = (   0.1500000   0.2598076   0.0000000), wk =   0.0100000
        k(   30) = (   0.1500000   0.3175426   0.0000000), wk =   0.0100000
        k(   31) = (   0.1500000   0.3752777   0.0000000), wk =   0.0100000
        k(   32) = (   0.1500000   0.4330127   0.0000000), wk =   0.0100000
        k(   33) = (   0.1500000   0.4907477   0.0000000), wk =   0.0100000
        k(   34) = (   0.1500000   0.5484828   0.0000000), wk =   0.0100000
        k(   35) = (   0.2000000   0.3464102   0.0000000), wk =   0.0100000
        k(   36) = (   0.2000000   0.4041452   0.0000000), wk =   0.0100000
        k(   37) = (   0.2000000   0.4618802   0.0000000), wk =   0.0100000
        k(   38) = (   0.2000000   0.5196152   0.0000000), wk =   0.0100000
        k(   39) = (   0.2000000   0.5773503   0.0000000), wk =   0.0100000
        k(   40) = (   0.2500000   0.4330127   0.0000000), wk =   0.0100000
        k(   41) = (   0.2500000   0.4907477   0.0000000), wk =   0.0100000
        k(   42) = (   0.2500000   0.5484828   0.0000000), wk =   0.0100000
        k(   43) = (   0.3000000   0.5196152   0.0000000), wk =   0.0100000
        k(   44) = (   0.3000000   0.5773503   0.0000000), wk =   0.0100000
        k(   45) = (  -0.0500000   0.0288675   0.0000000), wk =   0.0100000
        k(   46) = (   0.0500000   0.0288675   0.0000000), wk =   0.0100000
        k(   47) = (  -0.1000000   0.0577350   0.0000000), wk =   0.0100000
        k(   48) = (   0.1000000   0.0577350   0.0000000), wk =   0.0100000
        k(   49) = (  -0.1500000   0.0866025   0.0000000), wk =   0.0100000
        k(   50) = (   0.1500000   0.0866025   0.0000000), wk =   0.0100000
        k(   51) = (  -0.2000000   0.1154701   0.0000000), wk =   0.0100000
        k(   52) = (   0.2000000   0.1154701   0.0000000), wk =   0.0100000
        k(   53) = (  -0.2500000   0.1443376   0.0000000), wk =   0.0100000
        k(   54) = (   0.2500000   0.1443376   0.0000000), wk =   0.0100000
        k(   55) = (  -0.3000000   0.1732051   0.0000000), wk =   0.0100000
        k(   56) = (   0.3000000   0.1732051   0.0000000), wk =   0.0100000
        k(   57) = (  -0.3500000   0.2020726   0.0000000), wk =   0.0100000
        k(   58) = (   0.3500000   0.2020726   0.0000000), wk =   0.0100000
        k(   59) = (  -0.4000000   0.2309401   0.0000000), wk =   0.0100000
        k(   60) = (   0.4000000   0.2309401   0.0000000), wk =   0.0100000
        k(   61) = (  -0.4500000   0.2598076   0.0000000), wk =   0.0100000
        k(   62) = (   0.4500000   0.2598076   0.0000000), wk =   0.0100000
        k(   63) = (   0.5000000  -0.2886751   0.0000000), wk =   0.0050000
        k(   64) = (  -0.5000000  -0.2886751   0.0000000), wk =   0.0050000
        k(   65) = (  -0.0500000   0.0866025   0.0000000), wk =   0.0100000
        k(   66) = (   0.1000000   0.0000000   0.0000000), wk =   0.0100000
        k(   67) = (  -0.0500000   0.1443376   0.0000000), wk =   0.0100000
        k(   68) = (  -0.1000000   0.1154701   0.0000000), wk =   0.0100000
        k(   69) = (   0.1500000   0.0288675   0.0000000), wk =   0.0100000
        k(   70) = (  -0.1000000  -0.1154701   0.0000000), wk =   0.0100000
        k(   71) = (   0.1500000  -0.0288675   0.0000000), wk =   0.0100000
        k(   72) = (  -0.0500000   0.2020726   0.0000000), wk =   0.0100000
        k(   73) = (  -0.1500000   0.1443376   0.0000000), wk =   0.0100000
        k(   74) = (   0.2000000   0.0577350   0.0000000), wk =   0.0100000
        k(   75) = (  -0.1500000  -0.1443376   0.0000000), wk =   0.0100000
        k(   76) = (   0.2000000  -0.0577350   0.0000000), wk =   0.0100000
        k(   77) = (  -0.0500000   0.2598076   0.0000000), wk =   0.0100000
        k(   78) = (  -0.2000000   0.1732051   0.0000000), wk =   0.0100000
        k(   79) = (   0.2500000   0.0866025   0.0000000), wk =   0.0100000
        k(   80) = (  -0.2000000  -0.1732051   0.0000000), wk =   0.0100000
        k(   81) = (   0.2500000  -0.0866025   0.0000000), wk =   0.0100000
        k(   82) = (  -0.0500000   0.3175426   0.0000000), wk =   0.0100000
        k(   83) = (  -0.2500000   0.2020726   0.0000000), wk =   0.0100000
        k(   84) = (   0.3000000   0.1154701   0.0000000), wk =   0.0100000
        k(   85) = (  -0.2500000  -0.2020726   0.0000000), wk =   0.0100000
        k(   86) = (   0.3000000  -0.1154701   0.0000000), wk =   0.0100000
        k(   87) = (  -0.0500000   0.3752777   0.0000000), wk =   0.0100000
        k(   88) = (  -0.3000000   0.2309401   0.0000000), wk =   0.0100000
        k(   89) = (   0.3500000   0.1443376   0.0000000), wk =   0.0100000
        k(   90) = (  -0.3000000  -0.2309401   0.0000000), wk =   0.0100000
        k(   91) = (   0.3500000  -0.1443376   0.0000000), wk =   0.0100000
        k(   92) = (  -0.0500000   0.4330127   0.0000000), wk =   0.0100000
        k(   93) = (  -0.3500000   0.2598076   0.0000000), wk =   0.0100000
        k(   94) = (   0.4000000   0.1732051   0.0000000), wk =   0.0100000
        k(   95) = (  -0.3500000  -0.2598076   0.0000000), wk =   0.0100000
        k(   96) = (   0.4000000  -0.1732051   0.0000000), wk =   0.0100000
        k(   97) = (  -0.0500000   0.4907477   0.0000000), wk =   0.0100000
        k(   98) = (  -0.4000000   0.2886751   0.0000000), wk =   0.0100000
        k(   99) = (   0.4500000   0.2020726   0.0000000), wk =   0.0100000
        k(  100) = (  -0.4000000  -0.2886751   0.0000000), wk =   0.0100000
        k(  101) = (   0.4500000  -0.2020726   0.0000000), wk =   0.0100000
        k(  102) = (  -0.0500000   0.5484828   0.0000000), wk =   0.0100000
        k(  103) = (  -0.4500000   0.3175426   0.0000000), wk =   0.0100000
        k(  104) = (   0.5000000   0.2309401   0.0000000), wk =   0.0100000
        k(  105) = (  -0.4500000  -0.3175426   0.0000000), wk =   0.0100000
        k(  106) = (   0.5000000  -0.2309401   0.0000000), wk =   0.0100000
        k(  107) = (  -0.1000000   0.1732051   0.0000000), wk =   0.0100000
        k(  108) = (   0.2000000   0.0000000   0.0000000), wk =   0.0100000
        k(  109) = (  -0.1000000   0.2309401   0.0000000), wk =   0.0100000
        k(  110) = (  -0.1500000   0.2020726   0.0000000), wk =   0.0100000
        k(  111) = (   0.2500000   0.0288675   0.0000000), wk =   0.0100000
        k(  112) = (  -0.1500000  -0.2020726   0.0000000), wk =   0.0100000
        k(  113) = (   0.2500000  -0.0288675   0.0000000), wk =   0.0100000
        k(  114) = (  -0.1000000   0.2886751   0.0000000), wk =   0.0100000
        k(  115) = (  -0.2000000   0.2309401   0.0000000), wk =   0.0100000
        k(  116) = (   0.3000000   0.0577350   0.0000000), wk =   0.0100000
        k(  117) = (  -0.2000000  -0.2309401   0.0000000), wk =   0.0100000
        k(  118) = (   0.3000000  -0.0577350   0.0000000), wk =   0.0100000
        k(  119) = (  -0.1000000   0.3464102   0.0000000), wk =   0.0100000
        k(  120) = (  -0.2500000   0.2598076   0.0000000), wk =   0.0100000
        k(  121) = (   0.3500000   0.0866025   0.0000000), wk =   0.0100000
        k(  122) = (  -0.2500000  -0.2598076   0.0000000), wk =   0.0100000
        k(  123) = (   0.3500000  -0.0866025   0.0000000), wk =   0.0100000
        k(  124) = (  -0.1000000   0.4041452   0.0000000), wk =   0.0100000
        k(  125) = (  -0.3000000   0.2886751   0.0000000), wk =   0.0100000
        k(  126) = (   0.4000000   0.1154701   0.0000000), wk =   0.0100000
        k(  127) = (  -0.3000000  -0.2886751   0.0000000), wk =   0.0100000
        k(  128) = (   0.4000000  -0.1154701   0.0000000), wk =   0.0100000
        k(  129) = (  -0.1000000   0.4618802   0.0000000), wk =   0.0100000
        k(  130) = (  -0.3500000   0.3175426   0.0000000), wk =   0.0100000
        k(  131) = (   0.4500000   0.1443376   0.0000000), wk =   0.0100000
        k(  132) = (  -0.3500000  -0.3175426   0.0000000), wk =   0.0100000
        k(  133) = (   0.4500000  -0.1443376   0.0000000), wk =   0.0100000
        k(  134) = (  -0.1000000   0.5196152   0.0000000), wk =   0.0100000
        k(  135) = (  -0.4000000   0.3464102   0.0000000), wk =   0.0100000
        k(  136) = (   0.5000000   0.1732051   0.0000000), wk =   0.0100000
        k(  137) = (  -0.4000000  -0.3464102   0.0000000), wk =   0.0100000
        k(  138) = (   0.5000000  -0.1732051   0.0000000), wk =   0.0100000
        k(  139) = (  -0.4500000   0.3752777   0.0000000), wk =   0.0100000
        k(  140) = (   0.5500000   0.2020726   0.0000000), wk =   0.0100000
        k(  141) = (  -0.1500000   0.2598076   0.0000000), wk =   0.0100000
        k(  142) = (   0.3000000   0.0000000   0.0000000), wk =   0.0100000
        k(  143) = (  -0.1500000   0.3175426   0.0000000), wk =   0.0100000
        k(  144) = (  -0.2000000   0.2886751   0.0000000), wk =   0.0100000
        k(  145) = (   0.3500000   0.0288675   0.0000000), wk =   0.0100000
        k(  146) = (  -0.2000000  -0.2886751   0.0000000), wk =   0.0100000
        k(  147) = (   0.3500000  -0.0288675   0.0000000), wk =   0.0100000
        k(  148) = (  -0.1500000   0.3752777   0.0000000), wk =   0.0100000
        k(  149) = (  -0.2500000   0.3175426   0.0000000), wk =   0.0100000
        k(  150) = (   0.4000000   0.0577350   0.0000000), wk =   0.0100000
        k(  151) = (  -0.2500000  -0.3175426   0.0000000), wk =   0.0100000
        k(  152) = (   0.4000000  -0.0577350   0.0000000), wk =   0.0100000
        k(  153) = (  -0.1500000   0.4330127   0.0000000), wk =   0.0100000
        k(  154) = (  -0.3000000   0.3464102   0.0000000), wk =   0.0100000
        k(  155) = (   0.4500000   0.0866025   0.0000000), wk =   0.0100000
        k(  156) = (  -0.3000000  -0.3464102   0.0000000), wk =   0.0100000
        k(  157) = (   0.4500000  -0.0866025   0.0000000), wk =   0.0100000
        k(  158) = (  -0.1500000   0.4907477   0.0000000), wk =   0.0100000
        k(  159) = (  -0.3500000   0.3752777   0.0000000), wk =   0.0100000
        k(  160) = (   0.5000000   0.1154701   0.0000000), wk =   0.0100000
        k(  161) = (  -0.3500000  -0.3752777   0.0000000), wk =   0.0100000
        k(  162) = (   0.5000000  -0.1154701   0.0000000), wk =   0.0100000
        k(  163) = (  -0.1500000   0.5484828   0.0000000), wk =   0.0100000
        k(  164) = (  -0.4000000   0.4041452   0.0000000), wk =   0.0100000
        k(  165) = (   0.5500000   0.1443376   0.0000000), wk =   0.0100000
        k(  166) = (  -0.4000000  -0.4041452   0.0000000), wk =   0.0100000
        k(  167) = (   0.5500000  -0.1443376   0.0000000), wk =   0.0100000
        k(  168) = (  -0.2000000   0.3464102   0.0000000), wk =   0.0100000
        k(  169) = (   0.4000000   0.0000000   0.0000000), wk =   0.0100000
        k(  170) = (  -0.2000000   0.4041452   0.0000000), wk =   0.0100000
        k(  171) = (  -0.2500000   0.3752777   0.0000000), wk =   0.0100000
        k(  172) = (   0.4500000   0.0288675   0.0000000), wk =   0.0100000
        k(  173) = (  -0.2500000  -0.3752777   0.0000000), wk =   0.0100000
        k(  174) = (   0.4500000  -0.0288675   0.0000000), wk =   0.0100000
        k(  175) = (  -0.2000000   0.4618802   0.0000000), wk =   0.0100000
        k(  176) = (  -0.3000000   0.4041452   0.0000000), wk =   0.0100000
        k(  177) = (   0.5000000   0.0577350   0.0000000), wk =   0.0100000
        k(  178) = (  -0.3000000  -0.4041452   0.0000000), wk =   0.0100000
        k(  179) = (   0.5000000  -0.0577350   0.0000000), wk =   0.0100000
        k(  180) = (  -0.2000000   0.5196152   0.0000000), wk =   0.0100000
        k(  181) = (  -0.3500000   0.4330127   0.0000000), wk =   0.0100000
        k(  182) = (   0.5500000   0.0866025   0.0000000), wk =   0.0100000
        k(  183) = (  -0.3500000  -0.4330127   0.0000000), wk =   0.0100000
        k(  184) = (   0.5500000  -0.0866025   0.0000000), wk =   0.0100000
        k(  185) = (  -0.4000000   0.4618802   0.0000000), wk =   0.0100000
        k(  186) = (   0.6000000   0.1154701   0.0000000), wk =   0.0100000
        k(  187) = (  -0.2500000   0.4330127   0.0000000), wk =   0.0100000
        k(  188) = (   0.5000000   0.0000000   0.0000000), wk =   0.0100000
        k(  189) = (  -0.2500000   0.4907477   0.0000000), wk =   0.0100000
        k(  190) = (  -0.3000000   0.4618802   0.0000000), wk =   0.0100000
        k(  191) = (   0.5500000   0.0288675   0.0000000), wk =   0.0100000
        k(  192) = (  -0.3000000  -0.4618802   0.0000000), wk =   0.0100000
        k(  193) = (   0.5500000  -0.0288675   0.0000000), wk =   0.0100000
        k(  194) = (  -0.2500000   0.5484828   0.0000000), wk =   0.0100000
        k(  195) = (  -0.3500000   0.4907477   0.0000000), wk =   0.0100000
        k(  196) = (   0.6000000   0.0577350   0.0000000), wk =   0.0100000
        k(  197) = (  -0.3500000  -0.4907477   0.0000000), wk =   0.0100000
        k(  198) = (   0.6000000  -0.0577350   0.0000000), wk =   0.0100000
        k(  199) = (  -0.3000000   0.5196152   0.0000000), wk =   0.0100000
        k(  200) = (   0.6000000   0.0000000   0.0000000), wk =   0.0100000
        k(  201) = (  -0.3500000   0.5484828   0.0000000), wk =   0.0100000
        k(  202) = (   0.6500000   0.0288675   0.0000000), wk =   0.0100000

                       cryst. coord.
        k(    1) = (   0.0000000   0.0000000   0.0000000), wk =   0.0050000
        k(    2) = (   0.0000000   0.0500000   0.0000000), wk =   0.0100000
        k(    3) = (   0.0000000   0.1000000   0.0000000), wk =   0.0100000
        k(    4) = (   0.0000000   0.1500000   0.0000000), wk =   0.0100000
        k(    5) = (   0.0000000   0.2000000   0.0000000), wk =   0.0100000
        k(    6) = (   0.0000000   0.2500000   0.0000000), wk =   0.0100000
        k(    7) = (   0.0000000   0.3000000   0.0000000), wk =   0.0100000
        k(    8) = (   0.0000000   0.3500000   0.0000000), wk =   0.0100000
        k(    9) = (   0.0000000   0.4000000   0.0000000), wk =   0.0100000
        k(   10) = (   0.0000000   0.4500000   0.0000000), wk =   0.0100000
        k(   11) = (   0.0000000  -0.5000000   0.0000000), wk =   0.0050000
        k(   12) = (   0.0500000   0.0500000   0.0000000), wk =   0.0100000
        k(   13) = (   0.0500000   0.1000000   0.0000000), wk =   0.0100000
        k(   14) = (   0.0500000   0.1500000   0.0000000), wk =   0.0100000
        k(   15) = (   0.0500000   0.2000000   0.0000000), wk =   0.0100000
        k(   16) = (   0.0500000   0.2500000   0.0000000), wk =   0.0100000
        k(   17) = (   0.0500000   0.3000000   0.0000000), wk =   0.0100000
        k(   18) = (   0.0500000   0.3500000   0.0000000), wk =   0.0100000
        k(   19) = (   0.0500000   0.4000000   0.0000000), wk =   0.0100000
        k(   20) = (   0.0500000   0.4500000   0.0000000), wk =   0.0100000
        k(   21) = (   0.1000000   0.1000000   0.0000000), wk =   0.0100000
        k(   22) = (   0.1000000   0.1500000   0.0000000), wk =   0.0100000
        k(   23) = (   0.1000000   0.2000000   0.0000000), wk =   0.0100000
        k(   24) = (   0.1000000   0.2500000   0.0000000), wk =   0.0100000
        k(   25) = (   0.1000000   0.3000000   0.0000000), wk =   0.0100000
        k(   26) = (   0.1000000   0.3500000   0.0000000), wk =   0.0100000
        k(   27) = (   0.1000000   0.4000000   0.0000000), wk =   0.0100000
        k(   28) = (   0.1000000   0.4500000   0.0000000), wk =   0.0100000
        k(   29) = (   0.1500000   0.1500000   0.0000000), wk =   0.0100000
        k(   30) = (   0.1500000   0.2000000   0.0000000), wk =   0.0100000
        k(   31) = (   0.1500000   0.2500000   0.0000000), wk =   0.0100000
        k(   32) = (   0.1500000   0.3000000   0.0000000), wk =   0.0100000
        k(   33) = (   0.1500000   0.3500000   0.0000000), wk =   0.0100000
        k(   34) = (   0.1500000   0.4000000   0.0000000), wk =   0.0100000
        k(   35) = (   0.2000000   0.2000000   0.0000000), wk =   0.0100000
        k(   36) = (   0.2000000   0.2500000   0.0000000), wk =   0.0100000
        k(   37) = (   0.2000000   0.3000000   0.0000000), wk =   0.0100000
        k(   38) = (   0.2000000   0.3500000   0.0000000), wk =   0.0100000
        k(   39) = (   0.2000000   0.4000000   0.0000000), wk =   0.0100000
        k(   40) = (   0.2500000   0.2500000   0.0000000), wk =   0.0100000
        k(   41) = (   0.2500000   0.3000000   0.0000000), wk =   0.0100000
        k(   42) = (   0.2500000   0.3500000   0.0000000), wk =   0.0100000
        k(   43) = (   0.3000000   0.3000000   0.0000000), wk =   0.0100000
        k(   44) = (   0.3000000   0.3500000   0.0000000), wk =   0.0100000
        k(   45) = (  -0.0500000   0.0500000   0.0000000), wk =   0.0100000
        k(   46) = (   0.0500000   0.0000000   0.0000000), wk =   0.0100000
        k(   47) = (  -0.1000000   0.1000000   0.0000000), wk =   0.0100000
        k(   48) = (   0.1000000   0.0000000   0.0000000), wk =   0.0100000
        k(   49) = (  -0.1500000   0.1500000   0.0000000), wk =   0.0100000
        k(   50) = (   0.1500000   0.0000000   0.0000000), wk =   0.0100000
        k(   51) = (  -0.2000000   0.2000000   0.0000000), wk =   0.0100000
        k(   52) = (   0.2000000   0.0000000   0.0000000), wk =   0.0100000
        k(   53) = (  -0.2500000   0.2500000   0.0000000), wk =   0.0100000
        k(   54) = (   0.2500000   0.0000000   0.0000000), wk =   0.0100000
        k(   55) = (  -0.3000000   0.3000000   0.0000000), wk =   0.0100000
        k(   56) = (   0.3000000   0.0000000   0.0000000), wk =   0.0100000
        k(   57) = (  -0.3500000   0.3500000   0.0000000), wk =   0.0100000
        k(   58) = (   0.3500000   0.0000000   0.0000000), wk =   0.0100000
        k(   59) = (  -0.4000000   0.4000000   0.0000000), wk =   0.0100000
        k(   60) = (   0.4000000   0.0000000   0.0000000), wk =   0.0100000
        k(   61) = (  -0.4500000   0.4500000   0.0000000), wk =   0.0100000
        k(   62) = (   0.4500000   0.0000000   0.0000000), wk =   0.0100000
        k(   63) = (   0.5000000  -0.5000000   0.0000000), wk =   0.0050000
        k(   64) = (  -0.5000000   0.0000000   0.0000000), wk =   0.0050000
        k(   65) = (  -0.0500000   0.1000000   0.0000000), wk =   0.0100000
        k(   66) = (   0.1000000  -0.0500000   0.0000000), wk =   0.0100000
        k(   67) = (  -0.0500000   0.1500000   0.0000000), wk =   0.0100000
        k(   68) = (  -0.1000000   0.1500000   0.0000000), wk =   0.0100000
        k(   69) = (   0.1500000  -0.0500000   0.0000000), wk =   0.0100000
        k(   70) = (  -0.1000000  -0.0500000   0.0000000), wk =   0.0100000
        k(   71) = (   0.1500000  -0.1000000   0.0000000), wk =   0.0100000
        k(   72) = (  -0.0500000   0.2000000   0.0000000), wk =   0.0100000
        k(   73) = (  -0.1500000   0.2000000   0.0000000), wk =   0.0100000
        k(   74) = (   0.2000000  -0.0500000   0.0000000), wk =   0.0100000
        k(   75) = (  -0.1500000  -0.0500000   0.0000000), wk =   0.0100000
        k(   76) = (   0.2000000  -0.1500000   0.0000000), wk =   0.0100000
        k(   77) = (  -0.0500000   0.2500000   0.0000000), wk =   0.0100000
        k(   78) = (  -0.2000000   0.2500000   0.0000000), wk =   0.0100000
        k(   79) = (   0.2500000  -0.0500000   0.0000000), wk =   0.0100000
        k(   80) = (  -0.2000000  -0.0500000   0.0000000), wk =   0.0100000
        k(   81) = (   0.2500000  -0.2000000   0.0000000), wk =   0.0100000
        k(   82) = (  -0.0500000   0.3000000   0.0000000), wk =   0.0100000
        k(   83) = (  -0.2500000   0.3000000   0.0000000), wk =   0.0100000
        k(   84) = (   0.3000000  -0.0500000   0.0000000), wk =   0.0100000
        k(   85) = (  -0.2500000  -0.0500000   0.0000000), wk =   0.0100000
        k(   86) = (   0.3000000  -0.2500000   0.0000000), wk =   0.0100000
        k(   87) = (  -0.0500000   0.3500000   0.0000000), wk =   0.0100000
        k(   88) = (  -0.3000000   0.3500000   0.0000000), wk =   0.0100000
        k(   89) = (   0.3500000  -0.0500000   0.0000000), wk =   0.0100000
        k(   90) = (  -0.3000000  -0.0500000   0.0000000), wk =   0.0100000
        k(   91) = (   0.3500000  -0.3000000   0.0000000), wk =   0.0100000
        k(   92) = (  -0.0500000   0.4000000   0.0000000), wk =   0.0100000
        k(   93) = (  -0.3500000   0.4000000   0.0000000), wk =   0.0100000
        k(   94) = (   0.4000000  -0.0500000   0.0000000), wk =   0.0100000
        k(   95) = (  -0.3500000  -0.0500000   0.0000000), wk =   0.0100000
        k(   96) = (   0.4000000  -0.3500000   0.0000000), wk =   0.0100000
        k(   97) = (  -0.0500000   0.4500000   0.0000000), wk =   0.0100000
        k(   98) = (  -0.4000000   0.4500000   0.0000000), wk =   0.0100000
        k(   99) = (   0.4500000  -0.0500000   0.0000000), wk =   0.0100000
        k(  100) = (  -0.4000000  -0.0500000   0.0000000), wk =   0.0100000
        k(  101) = (   0.4500000  -0.4000000   0.0000000), wk =   0.0100000
        k(  102) = (  -0.0500000   0.5000000   0.0000000), wk =   0.0100000
        k(  103) = (  -0.4500000   0.5000000   0.0000000), wk =   0.0100000
        k(  104) = (   0.5000000  -0.0500000   0.0000000), wk =   0.0100000
        k(  105) = (  -0.4500000  -0.0500000   0.0000000), wk =   0.0100000
        k(  106) = (   0.5000000  -0.4500000   0.0000000), wk =   0.0100000
        k(  107) = (  -0.1000000   0.2000000   0.0000000), wk =   0.0100000
        k(  108) = (   0.2000000  -0.1000000   0.0000000), wk =   0.0100000
        k(  109) = (  -0.1000000   0.2500000   0.0000000), wk =   0.0100000
        k(  110) = (  -0.1500000   0.2500000   0.0000000), wk =   0.0100000
        k(  111) = (   0.2500000  -0.1000000   0.0000000), wk =   0.0100000
        k(  112) = (  -0.1500000  -0.1000000   0.0000000), wk =   0.0100000
        k(  113) = (   0.2500000  -0.1500000   0.0000000), wk =   0.0100000
        k(  114) = (  -0.1000000   0.3000000   0.0000000), wk =   0.0100000
        k(  115) = (  -0.2000000   0.3000000   0.0000000), wk =   0.0100000
        k(  116) = (   0.3000000  -0.1000000   0.0000000), wk =   0.0100000
        k(  117) = (  -0.2000000  -0.1000000   0.0000000), wk =   0.0100000
        k(  118) = (   0.3000000  -0.2000000   0.0000000), wk =   0.0100000
        k(  119) = (  -0.1000000   0.3500000   0.0000000), wk =   0.0100000
        k(  120) = (  -0.2500000   0.3500000   0.0000000), wk =   0.0100000
        k(  121) = (   0.3500000  -0.1000000   0.0000000), wk =   0.0100000
        k(  122) = (  -0.2500000  -0.1000000   0.0000000), wk =   0.0100000
        k(  123) = (   0.3500000  -0.2500000   0.0000000), wk =   0.0100000
        k(  124) = (  -0.1000000   0.4000000   0.0000000), wk =   0.0100000
        k(  125) = (  -0.3000000   0.4000000   0.0000000), wk =   0.0100000
        k(  126) = (   0.4000000  -0.1000000   0.0000000), wk =   0.0100000
        k(  127) = (  -0.3000000  -0.1000000   0.0000000), wk =   0.0100000
        k(  128) = (   0.4000000  -0.3000000   0.0000000), wk =   0.0100000
        k(  129) = (  -0.1000000   0.4500000   0.0000000), wk =   0.0100000
        k(  130) = (  -0.3500000   0.4500000   0.0000000), wk =   0.0100000
        k(  131) = (   0.4500000  -0.1000000   0.0000000), wk =   0.0100000
        k(  132) = (  -0.3500000  -0.1000000   0.0000000), wk =   0.0100000
        k(  133) = (   0.4500000  -0.3500000   0.0000000), wk =   0.0100000
        k(  134) = (  -0.1000000   0.5000000   0.0000000), wk =   0.0100000
        k(  135) = (  -0.4000000   0.5000000   0.0000000), wk =   0.0100000
        k(  136) = (   0.5000000  -0.1000000   0.0000000), wk =   0.0100000
        k(  137) = (  -0.4000000  -0.1000000   0.0000000), wk =   0.0100000
        k(  138) = (   0.5000000  -0.4000000   0.0000000), wk =   0.0100000
        k(  139) = (  -0.4500000   0.5500000   0.0000000), wk =   0.0100000
        k(  140) = (   0.5500000  -0.1000000   0.0000000), wk =   0.0100000
        k(  141) = (  -0.1500000   0.3000000   0.0000000), wk =   0.0100000
        k(  142) = (   0.3000000  -0.1500000   0.0000000), wk =   0.0100000
        k(  143) = (  -0.1500000   0.3500000   0.0000000), wk =   0.0100000
        k(  144) = (  -0.2000000   0.3500000   0.0000000), wk =   0.0100000
        k(  145) = (   0.3500000  -0.1500000   0.0000000), wk =   0.0100000
        k(  146) = (  -0.2000000  -0.1500000   0.0000000), wk =   0.0100000
        k(  147) = (   0.3500000  -0.2000000   0.0000000), wk =   0.0100000
        k(  148) = (  -0.1500000   0.4000000   0.0000000), wk =   0.0100000
        k(  149) = (  -0.2500000   0.4000000   0.0000000), wk =   0.0100000
        k(  150) = (   0.4000000  -0.1500000   0.0000000), wk =   0.0100000
        k(  151) = (  -0.2500000  -0.1500000   0.0000000), wk =   0.0100000
        k(  152) = (   0.4000000  -0.2500000   0.0000000), wk =   0.0100000
        k(  153) = (  -0.1500000   0.4500000   0.0000000), wk =   0.0100000
        k(  154) = (  -0.3000000   0.4500000   0.0000000), wk =   0.0100000
        k(  155) = (   0.4500000  -0.1500000   0.0000000), wk =   0.0100000
        k(  156) = (  -0.3000000  -0.1500000   0.0000000), wk =   0.0100000
        k(  157) = (   0.4500000  -0.3000000   0.0000000), wk =   0.0100000
        k(  158) = (  -0.1500000   0.5000000   0.0000000), wk =   0.0100000
        k(  159) = (  -0.3500000   0.5000000   0.0000000), wk =   0.0100000
        k(  160) = (   0.5000000  -0.1500000   0.0000000), wk =   0.0100000
        k(  161) = (  -0.3500000  -0.1500000   0.0000000), wk =   0.0100000
        k(  162) = (   0.5000000  -0.3500000   0.0000000), wk =   0.0100000
        k(  163) = (  -0.1500000   0.5500000   0.0000000), wk =   0.0100000
        k(  164) = (  -0.4000000   0.5500000   0.0000000), wk =   0.0100000
        k(  165) = (   0.5500000  -0.1500000   0.0000000), wk =   0.0100000
        k(  166) = (  -0.4000000  -0.1500000   0.0000000), wk =   0.0100000
        k(  167) = (   0.5500000  -0.4000000   0.0000000), wk =   0.0100000
        k(  168) = (  -0.2000000   0.4000000   0.0000000), wk =   0.0100000
        k(  169) = (   0.4000000  -0.2000000   0.0000000), wk =   0.0100000
        k(  170) = (  -0.2000000   0.4500000   0.0000000), wk =   0.0100000
        k(  171) = (  -0.2500000   0.4500000   0.0000000), wk =   0.0100000
        k(  172) = (   0.4500000  -0.2000000   0.0000000), wk =   0.0100000
        k(  173) = (  -0.2500000  -0.2000000   0.0000000), wk =   0.0100000
        k(  174) = (   0.4500000  -0.2500000   0.0000000), wk =   0.0100000
        k(  175) = (  -0.2000000   0.5000000   0.0000000), wk =   0.0100000
        k(  176) = (  -0.3000000   0.5000000   0.0000000), wk =   0.0100000
        k(  177) = (   0.5000000  -0.2000000   0.0000000), wk =   0.0100000
        k(  178) = (  -0.3000000  -0.2000000   0.0000000), wk =   0.0100000
        k(  179) = (   0.5000000  -0.3000000   0.0000000), wk =   0.0100000
        k(  180) = (  -0.2000000   0.5500000   0.0000000), wk =   0.0100000
        k(  181) = (  -0.3500000   0.5500000   0.0000000), wk =   0.0100000
        k(  182) = (   0.5500000  -0.2000000   0.0000000), wk =   0.0100000
        k(  183) = (  -0.3500000  -0.2000000   0.0000000), wk =   0.0100000
        k(  184) = (   0.5500000  -0.3500000   0.0000000), wk =   0.0100000
        k(  185) = (  -0.4000000   0.6000000   0.0000000), wk =   0.0100000
        k(  186) = (   0.6000000  -0.2000000   0.0000000), wk =   0.0100000
        k(  187) = (  -0.2500000   0.5000000   0.0000000), wk =   0.0100000
        k(  188) = (   0.5000000  -0.2500000   0.0000000), wk =   0.0100000
        k(  189) = (  -0.2500000   0.5500000   0.0000000), wk =   0.0100000
        k(  190) = (  -0.3000000   0.5500000   0.0000000), wk =   0.0100000
        k(  191) = (   0.5500000  -0.2500000   0.0000000), wk =   0.0100000
        k(  192) = (  -0.3000000  -0.2500000   0.0000000), wk =   0.0100000
        k(  193) = (   0.5500000  -0.3000000   0.0000000), wk =   0.0100000
        k(  194) = (  -0.2500000   0.6000000   0.0000000), wk =   0.0100000
        k(  195) = (  -0.3500000   0.6000000   0.0000000), wk =   0.0100000
        k(  196) = (   0.6000000  -0.2500000   0.0000000), wk =   0.0100000
        k(  197) = (  -0.3500000  -0.2500000   0.0000000), wk =   0.0100000
        k(  198) = (   0.6000000  -0.3500000   0.0000000), wk =   0.0100000
        k(  199) = (  -0.3000000   0.6000000   0.0000000), wk =   0.0100000
        k(  200) = (   0.6000000  -0.3000000   0.0000000), wk =   0.0100000
        k(  201) = (  -0.3500000   0.6500000   0.0000000), wk =   0.0100000
        k(  202) = (   0.6500000  -0.3000000   0.0000000), wk =   0.0100000

     Dense  grid:   248137 G-vectors     FFT dimensions: (  40,  40, 384)

     Largest allocated arrays     est. size (Mb)     dimensions
        Kohn-Sham Wavefunctions         0.48 Mb     (   2262,   14)
        NL pseudopotentials             0.28 Mb     (   2262,    8)
        Each V/rho on FFT grid          0.68 Mb     (  44800)
        Each G-vector array             0.14 Mb     (  17723)
        G-vector shells                 0.03 Mb     (   4463)
     Largest temporary arrays     est. size (Mb)     dimensions
        Auxiliary wavefunctions         1.93 Mb     (   2262,   56)
        Each subspace H/S matrix        0.01 Mb     (  28,  28)
        Each <psi_i|beta_j> matrix      0.00 Mb     (      8,   14)
        Arrays for rho mixing           5.47 Mb     (  44800,   8)

     Initial potential from superposition of free atoms
     Check: negative starting charge=   -0.000325

     starting charge    7.99709, renormalised to    8.00000

     negative rho (up, down):  0.325E-03 0.000E+00
     Starting wfc are    8 randomized atomic wfcs

     total cpu time spent up to now is       12.4 secs

     per-process dynamical memory:    10.9 Mb

     Self-consistent Calculation

     iteration #  1     ecut=    50.00 Ry     beta=0.70
     Davidson diagonalization with overlap
     ethr =  1.00E-02,  avg # of iterations =  8.3

     Threshold (ethr) on eigenvalues was too large:
     Diagonalizing with lowered threshold

     Davidson diagonalization with overlap
     ethr =  5.90E-04,  avg # of iterations =  4.8

     negative rho (up, down):  0.902E-04 0.000E+00

     total cpu time spent up to now is      117.2 secs

     total energy              =     -14.12945735 Ry
     Harris-Foulkes estimate   =     -14.15679858 Ry
     estimated scf accuracy    <       0.04836079 Ry

     iteration #  2     ecut=    50.00 Ry     beta=0.70
     Davidson diagonalization with overlap
     ethr =  6.05E-04,  avg # of iterations =  6.2

     negative rho (up, down):  0.383E-04 0.000E+00

     total cpu time spent up to now is      158.7 secs

     total energy              =     -14.13944820 Ry
     Harris-Foulkes estimate   =     -14.14430654 Ry
     estimated scf accuracy    <       0.00898403 Ry

     iteration #  3     ecut=    50.00 Ry     beta=0.70
     Davidson diagonalization with overlap
     ethr =  1.12E-04,  avg # of iterations =  5.4

     negative rho (up, down):  0.521E-06 0.000E+00

     total cpu time spent up to now is      203.3 secs

     total energy              =     -14.14134558 Ry
     Harris-Foulkes estimate   =     -14.14142026 Ry
     estimated scf accuracy    <       0.00027049 Ry

     iteration #  4     ecut=    50.00 Ry     beta=0.70
     Davidson diagonalization with overlap
     c_bands:  2 eigenvalues not converged
     c_bands:  1 eigenvalues not converged
     c_bands:  1 eigenvalues not converged
     c_bands:  1 eigenvalues not converged
     c_bands:  1 eigenvalues not converged
     c_bands:  1 eigenvalues not converged
     c_bands:  1 eigenvalues not converged
     c_bands:  1 eigenvalues not converged
     c_bands:  1 eigenvalues not converged
     c_bands:  1 eigenvalues not converged
     c_bands:  1 eigenvalues not converged
     c_bands:  1 eigenvalues not converged
     c_bands:  1 eigenvalues not converged
     c_bands:  1 eigenvalues not converged
     c_bands:  1 eigenvalues not converged
     c_bands:  1 eigenvalues not converged
     c_bands:  1 eigenvalues not converged
     ethr =  3.38E-06,  avg # of iterations =  8.3

     negative rho (up, down):  0.657E-07 0.000E+00

     total cpu time spent up to now is      260.6 secs

     total energy              =     -14.14137395 Ry
     Harris-Foulkes estimate   =     -14.14137572 Ry
     estimated scf accuracy    <       0.00000304 Ry

     iteration #  5     ecut=    50.00 Ry     beta=0.70
     Davidson diagonalization with overlap
     c_bands:  1 eigenvalues not converged
     c_bands:  1 eigenvalues not converged
     ethr =  3.80E-08,  avg # of iterations =  2.8

     total cpu time spent up to now is      294.1 secs

     total energy              =     -14.14137487 Ry
     Harris-Foulkes estimate   =     -14.14137496 Ry
     estimated scf accuracy    <       0.00000016 Ry

     iteration #  6     ecut=    50.00 Ry     beta=0.70
     Davidson diagonalization with overlap
     ethr =  2.05E-09,  avg # of iterations =  1.8

     total cpu time spent up to now is      324.0 secs

     total energy              =     -14.14137489 Ry
     Harris-Foulkes estimate   =     -14.14137492 Ry
     estimated scf accuracy    <       0.00000012 Ry

     iteration #  7     ecut=    50.00 Ry     beta=0.70
     Davidson diagonalization with overlap
     ethr =  1.54E-09,  avg # of iterations =  1.0

     total cpu time spent up to now is      352.4 secs

     End of self-consistent calculation

          k = 0.0000 0.0000 0.0000 ( 31197 PWs)   bands (ev):

   -12.8267  -7.3503  -3.2414  -3.2007  -2.4121  -2.0827  -0.0654  -0.0148
     0.4560   0.6750   0.7812   0.8565   1.0965   1.2391

     occupation numbers 
     1.0000   1.0000  -0.0354  -0.0334   0.0000   0.0000   0.0000   0.0000
     0.0000   0.0000   0.0000   0.0000   0.0000   0.0000

          k = 0.0000 0.0577 0.0000 ( 31257 PWs)   bands (ev):

   -12.8036  -7.3569  -3.5671  -3.2570  -2.4036  -1.7694  -0.0817   0.0179
     0.4826   0.7022   0.8074   0.8817   1.1220   1.2642

     occupation numbers 
     1.0000   1.0000   0.4953  -0.0344   0.0000   0.0000   0.0000   0.0000
     0.0000   0.0000   0.0000   0.0000   0.0000   0.0000

          k = 0.0000 0.1155 0.0000 ( 31209 PWs)   bands (ev):

   -12.7345  -7.3853  -4.1269  -3.4063  -2.3823  -1.3207  -0.1470   0.2425
     0.5630   0.7784   0.8824   0.9572   1.1940   1.3393

     occupation numbers 
     1.0000   1.0000   1.0067   0.0815   0.0000   0.0000   0.0000   0.0000
     0.0000   0.0000   0.0000   0.0000   0.0000   0.0000

          k = 0.0000 0.1732 0.0000 ( 31229 PWs)   bands (ev):

   -12.6201  -7.4617  -4.6498  -3.6076  -2.3635  -1.2024   0.0623   0.5496
     0.6913   0.9087   1.0081   1.0833   1.3112   1.4638

     occupation numbers 
     1.0000   1.0000   1.0000   0.6199   0.0000   0.0000   0.0000   0.0000
     0.0000   0.0000   0.0000   0.0000   0.0000   0.0000

          k = 0.0000 0.2309 0.0000 ( 31205 PWs)   bands (ev):

   -12.4615  -7.6275  -5.0427  -3.8243  -2.3801  -1.3339   0.3541   0.8340
     0.8705   1.1121   1.2110   1.2593   1.5001   1.6345

     occupation numbers 
     1.0000   1.0000   1.0000   1.0177   0.0000   0.0000   0.0000   0.0000
     0.0000   0.0000   0.0000   0.0000   0.0000   0.0000

          k = 0.0000 0.2887 0.0000 ( 31146 PWs)   bands (ev):

   -12.2609  -7.9121  -5.2585  -4.0316  -2.4795  -1.4619   0.4091   1.0202
     1.1412   1.3469   1.4708   1.4798   1.7728   1.8496

     occupation numbers 
     1.0000   1.0000   1.0000   1.0185   0.0000   0.0000   0.0000   0.0000
     0.0000   0.0000   0.0000   0.0000   0.0000   0.0000

          k = 0.0000 0.3464 0.0000 ( 31084 PWs)   bands (ev):

   -12.0226  -8.2979  -5.3067  -4.2143  -2.6768  -1.5183   0.3155   1.2771
     1.3228   1.6177   1.7296   1.7553   2.0282   2.1261

     occupation numbers 
     1.0000   1.0000   1.0000   1.0020   0.0000   0.0000   0.0000   0.0000
     0.0000   0.0000   0.0000   0.0000   0.0000   0.0000

          k = 0.0000 0.4041 0.0000 ( 31104 PWs)   bands (ev):

   -11.7545  -8.7312  -5.2378  -4.3631  -2.9315  -1.5370   0.2383   1.4182
     1.5685   1.9089   1.9984   2.0834   2.2563   2.4566

     occupation numbers 
     1.0000   1.0000   1.0000   1.0001  -0.0023   0.0000   0.0000   0.0000
     0.0000   0.0000   0.0000   0.0000   0.0000   0.0000

          k = 0.0000 0.4619 0.0000 ( 31062 PWs)   bands (ev):

   -11.4749  -9.1527  -5.1087  -4.4726  -3.1896  -1.5546   0.2366   1.4567
     1.7793   2.1086   2.3403   2.4600   2.5224   2.8342

     occupation numbers 
     1.0000   1.0000   1.0000   1.0000  -0.0320   0.0000   0.0000   0.0000
     0.0000   0.0000   0.0000   0.0000   0.0000   0.0000

          k = 0.0000 0.5196 0.0000 ( 30986 PWs)   bands (ev):

   -11.2294  -9.4915  -4.9804  -4.5394  -3.3940  -1.5742   0.2866   1.4680
     1.7341   2.4227   2.7431   2.8256   2.8877   3.0482

     occupation numbers 
     1.0000   1.0000   1.0000   1.0000   0.0622   0.0000   0.0000   0.0000
     0.0000   0.0000   0.0000   0.0000   0.0000   0.0000

          k = 0.0000-0.5774 0.0000 ( 30942 PWs)   bands (ev):

   -11.1201  -9.6332  -4.9241  -4.5618  -3.4756  -1.5830   0.3178   1.4698
     1.6805   2.6784   2.8553   3.1630   3.2399   3.2579

     occupation numbers 
     1.0000   1.0000   1.0000   1.0000   0.2284   0.0000   0.0000   0.0000
     0.0000   0.0000   0.0000   0.0000   0.0000   0.0000

          k = 0.0500 0.0866 0.0000 ( 31259 PWs)   bands (ev):

   -12.7576  -7.3740  -3.9621  -3.3807  -2.3883  -1.3971  -0.2067   0.2150
     0.5377   0.7525   0.8572   0.9320   1.1701   1.3143

     occupation numbers 
     1.0000   1.0000   1.0300   0.0434   0.0000   0.0000   0.0000   0.0000
     0.0000   0.0000   0.0000   0.0000   0.0000   0.0000

          k = 0.0500 0.1443 0.0000 ( 31226 PWs)   bands (ev):

   -12.6658  -7.4259  -4.4577  -3.5779  -2.3668  -1.0645  -0.2518   0.5181
     0.6654   0.8500   0.9543   1.0329   1.2611   1.4143

     occupation numbers 
     1.0000   1.0000   1.0000   0.5287   0.0000   0.0000   0.0000   0.0000
     0.0000   0.0000   0.0000   0.0000   0.0000   0.0000

          k = 0.0500 0.2021 0.0000 ( 31196 PWs)   bands (ev):

   -12.5293  -7.5466  -4.8857  -3.8113  -2.3608  -1.0892   0.0158   0.7553
     0.8717   1.0289   1.1148   1.1840   1.4032   1.5622

     occupation numbers 
     1.0000   1.0000   1.0000   1.0100   0.0000   0.0000   0.0000   0.0000
     0.0000   0.0000   0.0000   0.0000   0.0000   0.0000

          k = 0.0500 0.2598 0.0000 ( 31174 PWs)   bands (ev):

   -12.3495  -7.7737  -5.1695  -4.0422  -2.4092  -1.2441   0.3025   0.9326
     1.0246   1.2472   1.3585   1.3821   1.6353   1.7558

     occupation numbers 
     1.0000   1.0000   1.0000   1.0168   0.0000   0.0000   0.0000   0.0000
     0.0000   0.0000   0.0000   0.0000   0.0000   0.0000

          k = 0.0500 0.3175 0.0000 ( 31126 PWs)   bands (ev):

   -12.1295  -8.1136  -5.2869  -4.2481  -2.5502  -1.3464   0.3636   1.0667
     1.2352   1.4943   1.6130   1.6294   1.9093   2.0023

     occupation numbers 
     1.0000   1.0000   1.0000   1.0012   0.0000   0.0000   0.0000   0.0000
     0.0000   0.0000   0.0000   0.0000   0.0000   0.0000

          k = 0.0500 0.3753 0.0000 ( 31088 PWs)   bands (ev):

   -11.8749  -8.5274  -5.2708  -4.4145  -2.7768  -1.3822   0.2961   1.1672
     1.4953   1.7884   1.8909   1.9319   2.1746   2.3053

     occupation numbers 
     1.0000   1.0000   1.0000   1.0001  -0.0002   0.0000   0.0000   0.0000
     0.0000   0.0000   0.0000   0.0000   0.0000   0.0000

          k = 0.0500 0.4330 0.0000 ( 31066 PWs)   bands (ev):

   -11.5976  -8.9589  -5.1788  -4.5286  -3.0425  -1.3928   0.2501   1.2199
     1.7972   2.0651   2.1805   2.2843   2.4042   2.6595

     occupation numbers 
     1.0000   1.0000   1.0000   1.0000  -0.0099   0.0000   0.0000   0.0000
     0.0000   0.0000   0.0000   0.0000   0.0000   0.0000

          k = 0.0500 0.4907 0.0000 ( 31007 PWs)   bands (ev):

   -11.3257  -9.3480  -5.0761  -4.5763  -3.2918  -1.4040   0.2603   1.2695
     1.8884   2.2691   2.5592   2.6847   2.7058   2.9894

     occupation numbers 
     1.0000   1.0000   1.0000   1.0000  -0.0268   0.0000   0.0000   0.0000
     0.0000   0.0000   0.0000   0.0000   0.0000   0.0000

          k = 0.0500 0.5485 0.0000 ( 30977 PWs)   bands (ev):

   -11.1308  -9.6053  -5.0193  -4.5681  -3.4548  -1.4140   0.2891   1.3358
     1.7318   2.6446   2.9102   3.0276   3.1323   3.2062

     occupation numbers 
     1.0000   1.0000   1.0000   1.0000   0.1780   0.0000   0.0000   0.0000
     0.0000   0.0000   0.0000   0.0000   0.0000   0.0000

          k = 0.1000 0.1732 0.0000 ( 31229 PWs)   bands (ev):

   -12.5522  -7.5201  -4.8020  -3.8553  -2.3547  -0.7176  -0.4276   0.7292
     0.9560   0.9870   1.0697   1.1590   1.3648   1.5378

     occupation numbers 
     1.0000   1.0000   1.0000   1.0298   0.0000   0.0000   0.0000   0.0000
     0.0000   0.0000   0.0000   0.0000   0.0000   0.0000

          k = 0.1000 0.2309 0.0000 ( 31192 PWs)   bands (ev):

   -12.3943  -7.7032  -5.0735  -4.1464  -2.3738  -0.7550  -0.1734   0.9113
     1.0602   1.2092   1.2725   1.3318   1.5198   1.7093

     occupation numbers 
     1.0000   1.0000   1.0000   1.0053   0.0000   0.0000   0.0000   0.0000
     0.0000   0.0000   0.0000   0.0000   0.0000   0.0000

          k = 0.1000 0.2887 0.0000 ( 31149 PWs)   bands (ev):

   -12.1945  -7.9922  -5.2193  -4.4089  -2.4596  -0.9092   0.1811   0.9927
     1.1588   1.4062   1.4951   1.5564   1.7522   1.9329

     occupation numbers 
     1.0000   1.0000   1.0000   1.0001   0.0000   0.0000   0.0000   0.0000
     0.0000   0.0000   0.0000   0.0000   0.0000   0.0000

          k = 0.1000 0.3464 0.0000 ( 31075 PWs)   bands (ev):

   -11.9568  -8.3683  -5.2489  -4.6133  -2.6344  -0.9863   0.3630   0.8691
     1.4169   1.6839   1.7819   1.8322   2.0503   2.2079

     occupation numbers 
     1.0000   1.0000   1.0000   1.0000   0.0000   0.0000   0.0000   0.0000
     0.0000   0.0000   0.0000   0.0000   0.0000   0.0000

          k = 0.1000 0.4041 0.0000 ( 31087 PWs)   bands (ev):

   -11.6887  -8.7868  -5.2212  -4.7252  -2.8808  -0.9993   0.3560   0.8375
     1.7254   2.0053   2.0984   2.1583   2.3579   2.5336

     occupation numbers 
     1.0000   1.0000   1.0000   1.0000  -0.0010   0.0000   0.0000   0.0000
     0.0000   0.0000   0.0000   0.0000   0.0000   0.0000

          k = 0.1000 0.4619 0.0000 ( 31060 PWs)   bands (ev):

   -11.4076  -9.1967  -5.2153  -4.7047  -3.1529  -0.9875   0.2781   0.9168
     2.0428   2.2082   2.4168   2.5354   2.5955   2.9180

     occupation numbers 
     1.0000   1.0000   1.0000   1.0000  -0.0264   0.0000   0.0000   0.0000
     0.0000   0.0000   0.0000   0.0000   0.0000   0.0000

          k = 0.1000 0.5196 0.0000 ( 30990 PWs)   bands (ev):

   -11.1577  -9.5316  -5.2391  -4.5981  -3.3872  -0.9770   0.2208   1.0576
     1.9042   2.5217   2.8290   2.9513   2.9621   3.2198

     occupation numbers 
     1.0000   1.0000   1.0000   1.0000   0.0523   0.0000   0.0000   0.0000
     0.0000   0.0000   0.0000   0.0000   0.0000   0.0000

          k = 0.1000 0.5774 0.0000 ( 31024 PWs)   bands (ev):

   -11.0444  -9.6743  -5.2519  -4.5355  -3.4882  -0.9737   0.2016   1.1537
     1.7567   2.9304   2.9583   3.2683   3.3147   3.3537

     occupation numbers 
     1.0000   1.0000   1.0000   1.0000   0.2616   0.0000   0.0000   0.0000
     0.0000   0.0000   0.0000   0.0000   0.0000   0.0000

          k = 0.1500 0.2598 0.0000 ( 31121 PWs)   bands (ev):

   -12.2168  -7.9478  -5.1709  -4.5040  -2.4304  -0.4356  -0.2419   1.1074
     1.2209   1.2290   1.4235   1.5318   1.6631   1.9098

     occupation numbers 
     1.0000   1.0000   1.0000   1.0000   0.0000   0.0000   0.0000   0.0000
     0.0000   0.0000   0.0000   0.0000   0.0000   0.0000

          k = 0.1500 0.3175 0.0000 ( 31079 PWs)   bands (ev):

   -11.9986  -8.2781  -5.1826  -4.8055  -2.5591  -0.4878   0.1000   0.9571
     1.3711   1.4750   1.6710   1.7833   1.8885   2.1613

     occupation numbers 
     1.0000   1.0000   1.0000   1.0000   0.0000   0.0000   0.0000   0.0000
     0.0000   0.0000   0.0000   0.0000   0.0000   0.0000

          k = 0.1500 0.3753 0.0000 ( 31065 PWs)   bands (ev):

   -11.7452  -8.6635  -5.2128  -4.9386  -2.7646  -0.5162   0.3869   0.6579
     1.6612   1.8560   1.9794   2.0841   2.1967   2.4608

     occupation numbers 
     1.0000   1.0000   1.0000   1.0000  -0.0001   0.0000   0.0000   0.0000
     0.0000   0.0000   0.0000   0.0000   0.0000   0.0000

          k = 0.1500 0.4330 0.0000 ( 31094 PWs)   bands (ev):

   -11.4670  -9.0660  -5.3582  -4.8256  -3.0236  -0.4887   0.3788   0.6172
     1.9984   2.2217   2.3333   2.4342   2.5464   2.8060

     occupation numbers 
     1.0000   1.0000   1.0000   1.0000  -0.0079   0.0000   0.0000   0.0000
     0.0000   0.0000   0.0000   0.0000   0.0000   0.0000

          k = 0.1500 0.4907 0.0000 ( 31050 PWs)   bands (ev):

   -11.1892  -9.4382  -5.4793  -4.6409  -3.2899  -0.4307   0.1656   0.8317
     2.1413   2.4167   2.7089   2.8356   2.8554   3.1565

     occupation numbers 
     1.0000   1.0000   1.0000   1.0000  -0.0275   0.0000   0.0000   0.0000
     0.0000   0.0000   0.0000   0.0000   0.0000   0.0000

          k = 0.1500 0.5485 0.0000 ( 31035 PWs)   bands (ev):

   -10.9826  -9.6954  -5.5420  -4.4883  -3.4840  -0.3754   0.0337   1.0192
     1.8993   2.8396   3.1455   3.2338   3.2856   3.3674

     occupation numbers 
     1.0000   1.0000   1.0000   1.0000   0.2503   0.0000   0.0000   0.0000
     0.0000   0.0000   0.0000   0.0000   0.0000   0.0000

          k = 0.2000 0.3464 0.0000 ( 31037 PWs)   bands (ev):

   -11.7652  -8.6153  -5.1680  -5.0638  -2.7218  -0.1641   0.0935   0.8937
     1.5518   1.6429   1.9385   2.0597   2.1247   2.4385

     occupation numbers 
     1.0000   1.0000   1.0000   1.0000   0.0000   0.0000   0.0000   0.0000
     0.0000   0.0000   0.0000   0.0000   0.0000   0.0000

          k = 0.2000 0.4041 0.0000 ( 31048 PWs)   bands (ev):

   -11.4989  -8.9866  -5.4531  -4.8895  -2.9455  -0.0911   0.1942   0.8369
     1.8936   1.9652   2.2631   2.3852   2.4358   2.7690

     occupation numbers 
     1.0000   1.0000   1.0000   1.0000  -0.0028   0.0000   0.0000   0.0000
     0.0000   0.0000   0.0000   0.0000   0.0000   0.0000

          k = 0.2000 0.4619 0.0000 ( 31027 PWs)   bands (ev):

   -11.2141  -9.3589  -5.6598  -4.6751  -3.2039  -0.1416   0.2857   0.8589
     2.2860   2.3340   2.6386   2.7529   2.8002   2.8751

     occupation numbers 
     1.0000   1.0000   1.0000   1.0000  -0.0337   0.0000   0.0000   0.0000
     0.0000   0.0000   0.0000   0.0000   0.0000   0.0000

          k = 0.2000 0.5196 0.0000 ( 31041 PWs)   bands (ev):

   -10.9486  -9.6821  -5.7838  -4.4622  -3.4484  -0.1956   0.3143   0.9825
     2.1438   2.7507   3.0518   3.1631   3.1894   3.2786

     occupation numbers 
     1.0000   1.0000   1.0000   1.0000   0.1635   0.0000   0.0000   0.0000
     0.0000   0.0000   0.0000   0.0000   0.0000   0.0000

          k = 0.2000 0.5774 0.0000 ( 31080 PWs)   bands (ev):

   -10.8184  -9.8324  -5.8250  -4.3547  -3.5674  -0.2167   0.3165   1.0704
     2.0026   3.1552   3.2709   3.3953   3.4821   3.5519

     occupation numbers 
     1.0000   1.0000   1.0000   1.0002   0.4960   0.0000   0.0000   0.0000
     0.0000   0.0000   0.0000   0.0000   0.0000   0.0000

          k = 0.2500 0.4330 0.0000 ( 31045 PWs)   bands (ev):

   -11.2255  -9.3237  -5.7281  -4.6889  -3.1676  -0.1361   0.3576   1.1271
     2.0535   2.2937   2.6081   2.7304   2.7514   2.8825

     occupation numbers 
     1.0000   1.0000   1.0000   1.0000  -0.0288   0.0000   0.0000   0.0000
     0.0000   0.0000   0.0000   0.0000   0.0000   0.0000

          k = 0.2500 0.4907 0.0000 ( 31064 PWs)   bands (ev):

   -10.9374  -9.6603  -5.9204  -4.4546  -3.4137  -0.3079   0.6586   1.2343
     2.3651   2.5988   2.8230   2.9839   3.0677   3.1428

     occupation numbers 
     1.0000   1.0000   1.0000   1.0000   0.0941   0.0000   0.0000   0.0000
     0.0000   0.0000   0.0000   0.0000   0.0000   0.0000

          k = 0.2500 0.5485 0.0000 ( 31100 PWs)   bands (ev):

   -10.6945  -9.9288  -6.0183  -4.2512  -3.6235  -0.4010   0.9082   1.1857
     2.2585   2.9556   3.1294   3.3395   3.4780   3.5889

     occupation numbers 
     1.0000   1.0000   1.0000   1.0011   0.6667   0.0000   0.0000   0.0000
     0.0000   0.0000   0.0000   0.0000   0.0000   0.0000

          k = 0.3000 0.5196 0.0000 ( 31104 PWs)   bands (ev):

   -10.6528  -9.9571  -6.0885  -4.2148  -3.6396  -0.4704   1.0229   1.4392
     2.6013   2.6072   2.9583   3.1680   3.4444   3.5673

     occupation numbers 
     1.0000   1.0000   1.0000   1.0020   0.7124   0.0000   0.0000   0.0000
     0.0000   0.0000   0.0000   0.0000   0.0000   0.0000

          k = 0.3000 0.5774 0.0000 ( 31098 PWs)   bands (ev):

   -10.4454 -10.1694  -6.1449  -4.0433  -3.8061  -0.5274   1.2855   1.3443
     2.5874   2.7016   3.1342   3.5414   3.6556   3.9088

     occupation numbers 
     1.0000   1.0000   1.0000   1.0167   1.0063   0.0000   0.0000   0.0000
     0.0000   0.0000   0.0000   0.0000   0.0000   0.0000

          k =-0.0500 0.0289 0.0000 ( 31257 PWs)   bands (ev):

   -12.8037  -7.3566  -3.5432  -3.2851  -2.4035  -1.7648  -0.1199   0.0567
     0.4824   0.7019   0.8072   0.8816   1.1219   1.2641

     occupation numbers 
     1.0000   1.0000   0.4213  -0.0289   0.0000   0.0000   0.0000   0.0000
     0.0000   0.0000   0.0000   0.0000   0.0000   0.0000

          k = 0.0500 0.0289 0.0000 ( 31257 PWs)   bands (ev):

   -12.8037  -7.3566  -3.5434  -3.2850  -2.4035  -1.7648  -0.1197   0.0566
     0.4824   0.7019   0.8072   0.8816   1.1219   1.2641

     occupation numbers 
     1.0000   1.0000   0.4217  -0.0290   0.0000   0.0000   0.0000   0.0000
     0.0000   0.0000   0.0000   0.0000   0.0000   0.0000

          k =-0.1000 0.0577 0.0000 ( 31209 PWs)   bands (ev):

   -12.7349  -7.3839  -4.1070  -3.4316  -2.3818  -1.3181  -0.1756   0.2755
     0.5623   0.7778   0.8821   0.9572   1.1937   1.3392

     occupation numbers 
     1.0000   1.0000   1.0086   0.1279   0.0000   0.0000   0.0000   0.0000
     0.0000   0.0000   0.0000   0.0000   0.0000   0.0000

          k = 0.1000 0.0577 0.0000 ( 31209 PWs)   bands (ev):

   -12.7349  -7.3839  -4.1071  -3.4315  -2.3818  -1.3181  -0.1754   0.2753
     0.5623   0.7778   0.8821   0.9572   1.1938   1.3393

     occupation numbers 
     1.0000   1.0000   1.0086   0.1277   0.0000   0.0000   0.0000   0.0000
     0.0000   0.0000   0.0000   0.0000   0.0000   0.0000

          k =-0.1500 0.0866 0.0000 ( 31229 PWs)   bands (ev):

   -12.6211  -7.4580  -4.6336  -3.6292  -2.3623  -1.2115   0.0480   0.5770
     0.6898   0.9080   1.0078   1.0831   1.3110   1.4636

     occupation numbers 
     1.0000   1.0000   1.0000   0.6833   0.0000   0.0000   0.0000   0.0000
     0.0000   0.0000   0.0000   0.0000   0.0000   0.0000

          k = 0.1500 0.0866 0.0000 ( 31229 PWs)   bands (ev):

   -12.6211  -7.4580  -4.6337  -3.6291  -2.3623  -1.2114   0.0480   0.5769
     0.6898   0.9080   1.0078   1.0831   1.3112   1.4637

     occupation numbers 
     1.0000   1.0000   1.0000   0.6831   0.0000   0.0000   0.0000   0.0000
     0.0000   0.0000   0.0000   0.0000   0.0000   0.0000

          k =-0.2000 0.1155 0.0000 ( 31205 PWs)   bands (ev):

   -12.4634  -7.6197  -5.0312  -3.8427  -2.3777  -1.3483   0.3453   0.8319
     0.8933   1.1112   1.2098   1.2588   1.4997   1.6342

     occupation numbers 
     1.0000   1.0000   1.0000   1.0258   0.0000   0.0000   0.0000   0.0000
     0.0000   0.0000   0.0000   0.0000   0.0000   0.0000

          k = 0.2000 0.1155 0.0000 ( 31205 PWs)   bands (ev):

   -12.4633  -7.6197  -5.0313  -3.8426  -2.3778  -1.3482   0.3454   0.8319
     0.8932   1.1112   1.2098   1.2588   1.4996   1.6342

     occupation numbers 
     1.0000   1.0000   1.0000   1.0258   0.0000   0.0000   0.0000   0.0000
     0.0000   0.0000   0.0000   0.0000   0.0000   0.0000

          k =-0.2500 0.1443 0.0000 ( 31146 PWs)   bands (ev):

   -12.2642  -7.8990  -5.2525  -4.0474  -2.4756  -1.4771   0.4004   1.0196
     1.1586   1.3462   1.4693   1.4789   1.7700   1.8495

     occupation numbers 
     1.0000   1.0000   1.0000   1.0160   0.0000   0.0000   0.0000   0.0000
     0.0000   0.0000   0.0000   0.0000   0.0000   0.0000

          k = 0.2500 0.1443 0.0000 ( 31146 PWs)   bands (ev):

   -12.2642  -7.8991  -5.2525  -4.0473  -2.4756  -1.4770   0.4004   1.0196
     1.1585   1.3462   1.4692   1.4789   1.7700   1.8494

     occupation numbers 
     1.0000   1.0000   1.0000   1.0161   0.0000   0.0000   0.0000   0.0000
     0.0000   0.0000   0.0000   0.0000   0.0000   0.0000

          k =-0.3000 0.1732 0.0000 ( 31084 PWs)   bands (ev):

   -12.0279  -8.2795  -5.3060  -4.2282  -2.6708  -1.5330   0.3057   1.2768
     1.3356   1.6168   1.7270   1.7552   2.0246   2.1263

     occupation numbers 
     1.0000   1.0000   1.0000   1.0016   0.0000   0.0000   0.0000   0.0000
     0.0000   0.0000   0.0000   0.0000   0.0000   0.0000

          k = 0.3000 0.1732 0.0000 ( 31084 PWs)   bands (ev):

   -12.0279  -8.2796  -5.3061  -4.2281  -2.6708  -1.5330   0.3057   1.2768
     1.3355   1.6168   1.7270   1.7552   2.0247   2.1262

     occupation numbers 
     1.0000   1.0000   1.0000   1.0016   0.0000   0.0000   0.0000   0.0000
     0.0000   0.0000   0.0000   0.0000   0.0000   0.0000

          k =-0.3500 0.2021 0.0000 ( 31104 PWs)   bands (ev):

   -11.7631  -8.7075  -5.2418  -4.3756  -2.9222  -1.5518   0.2265   1.4270
     1.5684   1.9052   1.9965   2.0833   2.2543   2.4566

     occupation numbers 
     1.0000   1.0000   1.0000   1.0001  -0.0020   0.0000   0.0000   0.0000
     0.0000   0.0000   0.0000   0.0000   0.0000   0.0000

          k = 0.3500 0.2021 0.0000 ( 31104 PWs)   bands (ev):

   -11.7630  -8.7076  -5.2418  -4.3756  -2.9223  -1.5517   0.2266   1.4270
     1.5684   1.9053   1.9965   2.0833   2.2544   2.4566

     occupation numbers 
     1.0000   1.0000   1.0000   1.0001  -0.0020   0.0000   0.0000   0.0000
     0.0000   0.0000   0.0000   0.0000   0.0000   0.0000

          k =-0.4000 0.2309 0.0000 ( 31062 PWs)   bands (ev):

   -11.4886  -9.1227  -5.1174  -4.4842  -3.1759  -1.5698   0.2221   1.4634
     1.7788   2.1065   2.3404   2.4600   2.5232   2.8342

     occupation numbers 
     1.0000   1.0000   1.0000   1.0000  -0.0301   0.0000   0.0000   0.0000
     0.0000   0.0000   0.0000   0.0000   0.0000   0.0000

          k = 0.4000 0.2309 0.0000 ( 31062 PWs)   bands (ev):

   -11.4885  -9.1228  -5.1174  -4.4841  -3.1760  -1.5698   0.2222   1.4634
     1.7788   2.1066   2.3404   2.4600   2.5234   2.8344

     occupation numbers 
     1.0000   1.0000   1.0000   1.0000  -0.0301   0.0000   0.0000   0.0000
     0.0000   0.0000   0.0000   0.0000   0.0000   0.0000

          k =-0.4500 0.2598 0.0000 ( 30986 PWs)   bands (ev):

   -11.2504  -9.4536  -4.9937  -4.5505  -3.3756  -1.5899   0.2689   1.4734
     1.7388   2.4231   2.7431   2.8252   2.8878   3.0474

     occupation numbers 
     1.0000   1.0000   1.0000   1.0000   0.0368   0.0000   0.0000   0.0000
     0.0000   0.0000   0.0000   0.0000   0.0000   0.0000

          k = 0.4500 0.2598 0.0000 ( 30986 PWs)   bands (ev):

   -11.2503  -9.4537  -4.9936  -4.5504  -3.3757  -1.5899   0.2690   1.4734
     1.7388   2.4231   2.7431   2.8252   2.8877   3.0476

     occupation numbers 
     1.0000   1.0000   1.0000   1.0000   0.0369   0.0000   0.0000   0.0000
     0.0000   0.0000   0.0000   0.0000   0.0000   0.0000

          k = 0.5000-0.2887 0.0000 ( 30942 PWs)   bands (ev):

   -11.1460  -9.5902  -4.9396  -4.5728  -3.4547  -1.5989   0.2984   1.4749
     1.6882   2.6787   2.8539   3.1602   3.2402   3.2578

     occupation numbers 
     1.0000   1.0000   1.0000   1.0000   0.1778   0.0000   0.0000   0.0000
     0.0000   0.0000   0.0000   0.0000   0.0000   0.0000

          k =-0.5000-0.2887 0.0000 ( 30942 PWs)   bands (ev):

   -11.1458  -9.5904  -4.9396  -4.5727  -3.4548  -1.5988   0.2985   1.4748
     1.6882   2.6787   2.8539   3.1602   3.2405   3.2576

     occupation numbers 
     1.0000   1.0000   1.0000   1.0000   0.1780   0.0000   0.0000   0.0000
     0.0000   0.0000   0.0000   0.0000   0.0000   0.0000

          k =-0.0500 0.0866 0.0000 ( 31259 PWs)   bands (ev):

   -12.7576  -7.3740  -3.9620  -3.3808  -2.3883  -1.3971  -0.2069   0.2152
     0.5377   0.7525   0.8573   0.9320   1.1701   1.3143

     occupation numbers 
     1.0000   1.0000   1.0300   0.0436   0.0000   0.0000   0.0000   0.0000
     0.0000   0.0000   0.0000   0.0000   0.0000   0.0000

          k = 0.1000 0.0000 0.0000 ( 31259 PWs)   bands (ev):

   -12.7579  -7.3730  -3.9389  -3.4102  -2.3882  -1.3877  -0.2398   0.2472
     0.5371   0.7520   0.8569   0.9320   1.1697   1.3142

     occupation numbers 
     1.0000   1.0000   1.0331   0.0881   0.0000   0.0000   0.0000   0.0000
     0.0000   0.0000   0.0000   0.0000   0.0000   0.0000

          k =-0.0500 0.1443 0.0000 ( 31226 PWs)   bands (ev):

   -12.6658  -7.4259  -4.4577  -3.5780  -2.3668  -1.0645  -0.2519   0.5182
     0.6654   0.8500   0.9543   1.0329   1.2611   1.4142

     occupation numbers 
     1.0000   1.0000   1.0000   0.5290   0.0000   0.0000   0.0000   0.0000
     0.0000   0.0000   0.0000   0.0000   0.0000   0.0000

          k =-0.1000 0.1155 0.0000 ( 31226 PWs)   bands (ev):

   -12.6662  -7.4247  -4.4499  -3.5875  -2.3662  -1.0706  -0.2525   0.5252
     0.6668   0.8493   0.9541   1.0328   1.2610   1.4141

     occupation numbers 
     1.0000   1.0000   1.0000   0.5585   0.0000   0.0000   0.0000   0.0000
     0.0000   0.0000   0.0000   0.0000   0.0000   0.0000

          k = 0.1500 0.0289 0.0000 ( 31226 PWs)   bands (ev):

   -12.6667  -7.4228  -4.4355  -3.6077  -2.3663  -1.0582  -0.2772   0.5437
     0.6660   0.8491   0.9538   1.0328   1.2607   1.4140

     occupation numbers 
     1.0000   1.0000   1.0000   0.6200   0.0000   0.0000   0.0000   0.0000
     0.0000   0.0000   0.0000   0.0000   0.0000   0.0000

          k =-0.1000-0.1155 0.0000 ( 31226 PWs)   bands (ev):

   -12.6662  -7.4247  -4.4500  -3.5874  -2.3662  -1.0706  -0.2523   0.5251
     0.6668   0.8493   0.9541   1.0329   1.2610   1.4142

     occupation numbers 
     1.0000   1.0000   1.0000   0.5581   0.0000   0.0000   0.0000   0.0000
     0.0000   0.0000   0.0000   0.0000   0.0000   0.0000

          k = 0.1500-0.0289 0.0000 ( 31226 PWs)   bands (ev):

   -12.6667  -7.4228  -4.4355  -3.6077  -2.3663  -1.0583  -0.2772   0.5437
     0.6660   0.8490   0.9538   1.0327   1.2606   1.4140

     occupation numbers 
     1.0000   1.0000   1.0000   0.6201   0.0000   0.0000   0.0000   0.0000
     0.0000   0.0000   0.0000   0.0000   0.0000   0.0000

          k =-0.0500 0.2021 0.0000 ( 31196 PWs)   bands (ev):

   -12.5293  -7.5465  -4.8856  -3.8114  -2.3608  -1.0891   0.0158   0.7553
     0.8716   1.0289   1.1148   1.1841   1.4033   1.5623

     occupation numbers 
     1.0000   1.0000   1.0000   1.0100   0.0000   0.0000   0.0000   0.0000
     0.0000   0.0000   0.0000   0.0000   0.0000   0.0000

          k =-0.1500 0.1443 0.0000 ( 31196 PWs)   bands (ev):

   -12.5302  -7.5428  -4.8768  -3.8232  -2.3592  -1.1038   0.0181   0.7559
     0.8849   1.0272   1.1132   1.1838   1.4029   1.5619

     occupation numbers 
     1.0000   1.0000   1.0000   1.0171   0.0000   0.0000   0.0000   0.0000
     0.0000   0.0000   0.0000   0.0000   0.0000   0.0000

          k = 0.2000 0.0577 0.0000 ( 31196 PWs)   bands (ev):

   -12.5309  -7.5397  -4.8686  -3.8370  -2.3596  -1.0971   0.0098   0.7621
     0.8778   1.0287   1.1143   1.1836   1.4029   1.5618

     occupation numbers 
     1.0000   1.0000   1.0000   1.0236   0.0000   0.0000   0.0000   0.0000
     0.0000   0.0000   0.0000   0.0000   0.0000   0.0000

          k =-0.1500-0.1443 0.0000 ( 31196 PWs)   bands (ev):

   -12.5302  -7.5428  -4.8769  -3.8231  -2.3592  -1.1038   0.0181   0.7559
     0.8849   1.0272   1.1133   1.1838   1.4029   1.5619

     occupation numbers 
     1.0000   1.0000   1.0000   1.0170   0.0000   0.0000   0.0000   0.0000
     0.0000   0.0000   0.0000   0.0000   0.0000   0.0000

          k = 0.2000-0.0577 0.0000 ( 31196 PWs)   bands (ev):

   -12.5309  -7.5397  -4.8685  -3.8370  -2.3596  -1.0972   0.0098   0.7621
     0.8779   1.0287   1.1143   1.1836   1.4030   1.5620

     occupation numbers 
     1.0000   1.0000   1.0000   1.0236   0.0000   0.0000   0.0000   0.0000
     0.0000   0.0000   0.0000   0.0000   0.0000   0.0000

          k =-0.0500 0.2598 0.0000 ( 31174 PWs)   bands (ev):

   -12.3495  -7.7737  -5.1695  -4.0422  -2.4092  -1.2441   0.3026   0.9326
     1.0246   1.2472   1.3585   1.3821   1.6352   1.7558

     occupation numbers 
     1.0000   1.0000   1.0000   1.0168   0.0000   0.0000   0.0000   0.0000
     0.0000   0.0000   0.0000   0.0000   0.0000   0.0000

          k =-0.2000 0.1732 0.0000 ( 31174 PWs)   bands (ev):

   -12.3514  -7.7658  -5.1628  -4.0543  -2.4059  -1.2605   0.2966   0.9338
     1.0426   1.2466   1.3562   1.3815   1.6337   1.7554

     occupation numbers 
     1.0000   1.0000   1.0000   1.0150   0.0000   0.0000   0.0000   0.0000
     0.0000   0.0000   0.0000   0.0000   0.0000   0.0000

          k = 0.2500 0.0866 0.0000 ( 31174 PWs)   bands (ev):

   -12.3523  -7.7617  -5.1591  -4.0635  -2.4070  -1.2559   0.3019   0.9287
     1.0362   1.2462   1.3557   1.3814   1.6327   1.7557

     occupation numbers 
     1.0000   1.0000   1.0000   1.0137   0.0000   0.0000   0.0000   0.0000
     0.0000   0.0000   0.0000   0.0000   0.0000   0.0000

          k =-0.2000-0.1732 0.0000 ( 31174 PWs)   bands (ev):

   -12.3514  -7.7659  -5.1629  -4.0542  -2.4060  -1.2605   0.2966   0.9338
     1.0425   1.2466   1.3563   1.3815   1.6336   1.7554

     occupation numbers 
     1.0000   1.0000   1.0000   1.0150   0.0000   0.0000   0.0000   0.0000
     0.0000   0.0000   0.0000   0.0000   0.0000   0.0000

          k = 0.2500-0.0866 0.0000 ( 31174 PWs)   bands (ev):

   -12.3524  -7.7617  -5.1591  -4.0635  -2.4070  -1.2560   0.3018   0.9287
     1.0363   1.2462   1.3557   1.3814   1.6326   1.7557

     occupation numbers 
     1.0000   1.0000   1.0000   1.0137   0.0000   0.0000   0.0000   0.0000
     0.0000   0.0000   0.0000   0.0000   0.0000   0.0000

          k =-0.0500 0.3175 0.0000 ( 31126 PWs)   bands (ev):

   -12.1295  -8.1136  -5.2869  -4.2481  -2.5502  -1.3464   0.3636   1.0667
     1.2353   1.4943   1.6130   1.6294   1.9093   2.0024

     occupation numbers 
     1.0000   1.0000   1.0000   1.0012   0.0000   0.0000   0.0000   0.0000
     0.0000   0.0000   0.0000   0.0000   0.0000   0.0000

          k =-0.2500 0.2021 0.0000 ( 31126 PWs)   bands (ev):

   -12.1330  -8.1006  -5.2839  -4.2600  -2.5446  -1.3631   0.3524   1.0797
     1.2395   1.4936   1.6108   1.6293   1.9069   2.0022

     occupation numbers 
     1.0000   1.0000   1.0000   1.0010   0.0000   0.0000   0.0000   0.0000
     0.0000   0.0000   0.0000   0.0000   0.0000   0.0000

          k = 0.3000 0.1155 0.0000 ( 31126 PWs)   bands (ev):

   -12.1341  -8.0961  -5.2833  -4.2655  -2.5463  -1.3583   0.3589   1.0651
     1.2440   1.4934   1.6101   1.6296   1.9055   2.0027

     occupation numbers 
     1.0000   1.0000   1.0000   1.0009   0.0000   0.0000   0.0000   0.0000
     0.0000   0.0000   0.0000   0.0000   0.0000   0.0000

          k =-0.2500-0.2021 0.0000 ( 31126 PWs)   bands (ev):

   -12.1330  -8.1007  -5.2839  -4.2599  -2.5447  -1.3630   0.3525   1.0797
     1.2395   1.4937   1.6108   1.6293   1.9069   2.0022

     occupation numbers 
     1.0000   1.0000   1.0000   1.0010   0.0000   0.0000   0.0000   0.0000
     0.0000   0.0000   0.0000   0.0000   0.0000   0.0000

          k = 0.3000-0.1155 0.0000 ( 31126 PWs)   bands (ev):

   -12.1342  -8.0960  -5.2833  -4.2656  -2.5462  -1.3584   0.3588   1.0652
     1.2440   1.4935   1.6101   1.6296   1.9057   2.0027

     occupation numbers 
     1.0000   1.0000   1.0000   1.0009   0.0000   0.0000   0.0000   0.0000
     0.0000   0.0000   0.0000   0.0000   0.0000   0.0000

          k =-0.0500 0.3753 0.0000 ( 31088 PWs)   bands (ev):

   -11.8749  -8.5274  -5.2708  -4.4145  -2.7768  -1.3821   0.2962   1.1672
     1.4954   1.7884   1.8909   1.9319   2.1746   2.3053

     occupation numbers 
     1.0000   1.0000   1.0000   1.0001  -0.0002   0.0000   0.0000   0.0000
     0.0000   0.0000   0.0000   0.0000   0.0000   0.0000

          k =-0.3000 0.2309 0.0000 ( 31088 PWs)   bands (ev):

   -11.8809  -8.5091  -5.2718  -4.4262  -2.7684  -1.3989   0.2848   1.1775
     1.4950   1.7875   1.8889   1.9319   2.1723   2.3053

     occupation numbers 
     1.0000   1.0000   1.0000   1.0000  -0.0001   0.0000   0.0000   0.0000
     0.0000   0.0000   0.0000   0.0000   0.0000   0.0000

          k = 0.3500 0.1443 0.0000 ( 31088 PWs)   bands (ev):

   -11.8822  -8.5047  -5.2733  -4.4286  -2.7703  -1.3939   0.2860   1.1699
     1.4996   1.7874   1.8886   1.9320   2.1714   2.3055

     occupation numbers 
     1.0000   1.0000   1.0000   1.0000  -0.0001   0.0000   0.0000   0.0000
     0.0000   0.0000   0.0000   0.0000   0.0000   0.0000

          k =-0.3000-0.2309 0.0000 ( 31088 PWs)   bands (ev):

   -11.8809  -8.5092  -5.2718  -4.4262  -2.7684  -1.3988   0.2848   1.1775
     1.4950   1.7875   1.8889   1.9319   2.1723   2.3053

     occupation numbers 
     1.0000   1.0000   1.0000   1.0000  -0.0001   0.0000   0.0000   0.0000
     0.0000   0.0000   0.0000   0.0000   0.0000   0.0000

          k = 0.3500-0.1443 0.0000 ( 31088 PWs)   bands (ev):

   -11.8823  -8.5046  -5.2733  -4.4286  -2.7703  -1.3940   0.2859   1.1699
     1.4996   1.7874   1.8886   1.9320   2.1714   2.3055

     occupation numbers 
     1.0000   1.0000   1.0000   1.0000  -0.0001   0.0000   0.0000   0.0000
     0.0000   0.0000   0.0000   0.0000   0.0000   0.0000

          k =-0.0500 0.4330 0.0000 ( 31066 PWs)   bands (ev):

   -11.5976  -8.9589  -5.1788  -4.5286  -3.0425  -1.3928   0.2501   1.2199
     1.7972   2.0651   2.1805   2.2843   2.4041   2.6588

     occupation numbers 
     1.0000   1.0000   1.0000   1.0000  -0.0099   0.0000   0.0000   0.0000
     0.0000   0.0000   0.0000   0.0000   0.0000   0.0000

          k =-0.3500 0.2598 0.0000 ( 31066 PWs)   bands (ev):

   -11.6075  -8.9346  -5.1842  -4.5401  -3.0304  -1.4096   0.2379   1.2255
     1.7970   2.0623   2.1802   2.2843   2.4046   2.6589

     occupation numbers 
     1.0000   1.0000   1.0000   1.0000  -0.0086   0.0000   0.0000   0.0000
     0.0000   0.0000   0.0000   0.0000   0.0000   0.0000

          k = 0.4000 0.1732 0.0000 ( 31066 PWs)   bands (ev):

   -11.6090  -8.9309  -5.1872  -4.5395  -3.0323  -1.4050   0.2355   1.2248
     1.8001   2.0605   2.1799   2.2843   2.4042   2.6589

     occupation numbers 
     1.0000   1.0000   1.0000   1.0000  -0.0088   0.0000   0.0000   0.0000
     0.0000   0.0000   0.0000   0.0000   0.0000   0.0000

          k =-0.3500-0.2598 0.0000 ( 31066 PWs)   bands (ev):

   -11.6075  -8.9347  -5.1841  -4.5401  -3.0305  -1.4095   0.2380   1.2255
     1.7970   2.0624   2.1802   2.2843   2.4049   2.6589

     occupation numbers 
     1.0000   1.0000   1.0000   1.0000  -0.0086   0.0000   0.0000   0.0000
     0.0000   0.0000   0.0000   0.0000   0.0000   0.0000

          k = 0.4000-0.1732 0.0000 ( 31066 PWs)   bands (ev):

   -11.6090  -8.9308  -5.1872  -4.5396  -3.0323  -1.4051   0.2354   1.2248
     1.8001   2.0605   2.1799   2.2843   2.4040   2.6590

     occupation numbers 
     1.0000   1.0000   1.0000   1.0000  -0.0088   0.0000   0.0000   0.0000
     0.0000   0.0000   0.0000   0.0000   0.0000   0.0000

          k =-0.0500 0.4907 0.0000 ( 31007 PWs)   bands (ev):

   -11.3257  -9.3480  -5.0762  -4.5763  -3.2918  -1.4040   0.2602   1.2695
     1.8884   2.2691   2.5591   2.6848   2.7057   2.9893

     occupation numbers 
     1.0000   1.0000   1.0000   1.0000  -0.0268   0.0000   0.0000   0.0000
     0.0000   0.0000   0.0000   0.0000   0.0000   0.0000

          k =-0.4000 0.2887 0.0000 ( 31007 PWs)   bands (ev):

   -11.3420  -9.3160  -5.0863  -4.5877  -3.2753  -1.4206   0.2455   1.2728
     1.8922   2.2687   2.5593   2.6847   2.7066   2.9890

     occupation numbers 
     1.0000   1.0000   1.0000   1.0000  -0.0315   0.0000   0.0000   0.0000
     0.0000   0.0000   0.0000   0.0000   0.0000   0.0000

          k = 0.4500 0.2021 0.0000 ( 31007 PWs)   bands (ev):

   -11.3433  -9.3133  -5.0898  -4.5853  -3.2768  -1.4173   0.2422   1.2759
     1.8904   2.2690   2.5593   2.6849   2.7068   2.9895

     occupation numbers 
     1.0000   1.0000   1.0000   1.0000  -0.0311   0.0000   0.0000   0.0000
     0.0000   0.0000   0.0000   0.0000   0.0000   0.0000

          k =-0.4000-0.2887 0.0000 ( 31007 PWs)   bands (ev):

   -11.3419  -9.3161  -5.0862  -4.5877  -3.2753  -1.4205   0.2456   1.2728
     1.8922   2.2687   2.5593   2.6847   2.7066   2.9891

     occupation numbers 
     1.0000   1.0000   1.0000   1.0000  -0.0314   0.0000   0.0000   0.0000
     0.0000   0.0000   0.0000   0.0000   0.0000   0.0000

          k = 0.4500-0.2021 0.0000 ( 31007 PWs)   bands (ev):

   -11.3434  -9.3132  -5.0898  -4.5853  -3.2768  -1.4174   0.2421   1.2759
     1.8904   2.2690   2.5593   2.6848   2.7067   2.9902

     occupation numbers 
     1.0000   1.0000   1.0000   1.0000  -0.0311   0.0000   0.0000   0.0000
     0.0000   0.0000   0.0000   0.0000   0.0000   0.0000

          k =-0.0500 0.5485 0.0000 ( 30977 PWs)   bands (ev):

   -11.1308  -9.6052  -5.0193  -4.5681  -3.4548  -1.4140   0.2891   1.3358
     1.7318   2.6446   2.9102   3.0276   3.1325   3.2055

     occupation numbers 
     1.0000   1.0000   1.0000   1.0000   0.1780   0.0000   0.0000   0.0000
     0.0000   0.0000   0.0000   0.0000   0.0000   0.0000

          k =-0.4500 0.3175 0.0000 ( 30977 PWs)   bands (ev):

   -11.1549  -9.5647  -5.0334  -4.5797  -3.4346  -1.4298   0.2712   1.3388
     1.7398   2.6445   2.9096   3.0276   3.1322   3.2054

     occupation numbers 
     1.0000   1.0000   1.0000   1.0000   0.1339   0.0000   0.0000   0.0000
     0.0000   0.0000   0.0000   0.0000   0.0000   0.0000

          k = 0.5000 0.2309 0.0000 ( 30977 PWs)   bands (ev):

   -11.1554  -9.5637  -5.0350  -4.5783  -3.4353  -1.4287   0.2698   1.3416
     1.7375   2.6460   2.9085   3.0274   3.1322   3.2055

     occupation numbers 
     1.0000   1.0000   1.0000   1.0000   0.1354   0.0000   0.0000   0.0000
     0.0000   0.0000   0.0000   0.0000   0.0000   0.0000

          k =-0.4500-0.3175 0.0000 ( 30977 PWs)   bands (ev):

   -11.1547  -9.5649  -5.0333  -4.5796  -3.4347  -1.4298   0.2713   1.3388
     1.7397   2.6445   2.9096   3.0277   3.1321   3.2058

     occupation numbers 
     1.0000   1.0000   1.0000   1.0000   0.1341   0.0000   0.0000   0.0000
     0.0000   0.0000   0.0000   0.0000   0.0000   0.0000

          k = 0.5000-0.2309 0.0000 ( 30977 PWs)   bands (ev):

   -11.1555  -9.5636  -5.0350  -4.5783  -3.4352  -1.4287   0.2697   1.3416
     1.7375   2.6461   2.9085   3.0275   3.1323   3.2049

     occupation numbers 
     1.0000   1.0000   1.0000   1.0000   0.1352   0.0000   0.0000   0.0000
     0.0000   0.0000   0.0000   0.0000   0.0000   0.0000

          k =-0.1000 0.1732 0.0000 ( 31229 PWs)   bands (ev):

   -12.5522  -7.5200  -4.8019  -3.8554  -2.3547  -0.7175  -0.4277   0.7292
     0.9560   0.9870   1.0697   1.1590   1.3649   1.5377

     occupation numbers 
     1.0000   1.0000   1.0000   1.0299   0.0000   0.0000   0.0000   0.0000
     0.0000   0.0000   0.0000   0.0000   0.0000   0.0000

          k = 0.2000 0.0000 0.0000 ( 31229 PWs)   bands (ev):

   -12.5535  -7.5148  -4.7844  -3.8814  -2.3546  -0.6972  -0.4550   0.7346
     0.9548   0.9908   1.0692   1.1585   1.3643   1.5374

     occupation numbers 
     1.0000   1.0000   1.0000   1.0345   0.0000   0.0000   0.0000   0.0000
     0.0000   0.0000   0.0000   0.0000   0.0000   0.0000

          k =-0.1000 0.2309 0.0000 ( 31192 PWs)   bands (ev):

   -12.3943  -7.7032  -5.0734  -4.1465  -2.3738  -0.7550  -0.1734   0.9113
     1.0601   1.2091   1.2725   1.3318   1.5198   1.7092

     occupation numbers 
     1.0000   1.0000   1.0000   1.0053   0.0000   0.0000   0.0000   0.0000
     0.0000   0.0000   0.0000   0.0000   0.0000   0.0000

          k =-0.1500 0.2021 0.0000 ( 31192 PWs)   bands (ev):

   -12.3949  -7.7005  -5.0700  -4.1516  -2.3726  -0.7687  -0.1666   0.9103
     1.0693   1.2098   1.2689   1.3316   1.5192   1.7093

     occupation numbers 
     1.0000   1.0000   1.0000   1.0049   0.0000   0.0000   0.0000   0.0000
     0.0000   0.0000   0.0000   0.0000   0.0000   0.0000

          k = 0.2500 0.0289 0.0000 ( 31192 PWs)   bands (ev):

   -12.3966  -7.6930  -5.0591  -4.1718  -2.3729  -0.7632  -0.1675   0.9130
     1.0606   1.2064   1.2661   1.3314   1.5183   1.7092

     occupation numbers 
     1.0000   1.0000   1.0000   1.0037   0.0000   0.0000   0.0000   0.0000
     0.0000   0.0000   0.0000   0.0000   0.0000   0.0000

          k =-0.1500-0.2021 0.0000 ( 31192 PWs)   bands (ev):

   -12.3949  -7.7006  -5.0701  -4.1515  -2.3726  -0.7687  -0.1666   0.9103
     1.0693   1.2098   1.2689   1.3317   1.5192   1.7090

     occupation numbers 
     1.0000   1.0000   1.0000   1.0049   0.0000   0.0000   0.0000   0.0000
     0.0000   0.0000   0.0000   0.0000   0.0000   0.0000

[...]
     2.0001   2.2175   2.3326   2.4343   2.5462   2.8061

     occupation numbers 
     1.0000   1.0000   1.0000   1.0000  -0.0071   0.0000   0.0000   0.0000
     0.0000   0.0000   0.0000   0.0000   0.0000   0.0000

          k =-0.3000-0.3464 0.0000 ( 31094 PWs)   bands (ev):

   -11.4737  -9.0504  -5.3639  -4.8308  -3.0151  -0.5049   0.3817   0.6094
     1.9980   2.2223   2.3338   2.4342   2.5487   2.8060

     occupation numbers 
     1.0000   1.0000   1.0000   1.0000  -0.0071   0.0000   0.0000   0.0000
     0.0000   0.0000   0.0000   0.0000   0.0000   0.0000

          k = 0.4500-0.0866 0.0000 ( 31094 PWs)   bands (ev):

   -11.4788  -9.0381  -5.3752  -4.8280  -3.0144  -0.4937   0.3561   0.6258
     2.0000   2.2175   2.3326   2.4343   2.5461   2.8059

     occupation numbers 
     1.0000   1.0000   1.0000   1.0000  -0.0071   0.0000   0.0000   0.0000
     0.0000   0.0000   0.0000   0.0000   0.0000   0.0000

          k =-0.1500 0.4907 0.0000 ( 31050 PWs)   bands (ev):

   -11.1892  -9.4382  -5.4794  -4.6409  -3.2899  -0.4306   0.1655   0.8317
     2.1413   2.4167   2.7089   2.8356   2.8554   3.1566

     occupation numbers 
     1.0000   1.0000   1.0000   1.0000  -0.0275   0.0000   0.0000   0.0000
     0.0000   0.0000   0.0000   0.0000   0.0000   0.0000

          k =-0.3500 0.3753 0.0000 ( 31050 PWs)   bands (ev):

   -11.2025  -9.4136  -5.4887  -4.6483  -3.2768  -0.4485   0.1643   0.8260
     2.1456   2.4159   2.7091   2.8356   2.8561   3.1581

     occupation numbers 
     1.0000   1.0000   1.0000   1.0000  -0.0311   0.0000   0.0000   0.0000
     0.0000   0.0000   0.0000   0.0000   0.0000   0.0000

          k = 0.5000 0.1155 0.0000 ( 31050 PWs)   bands (ev):

   -11.2072  -9.4045  -5.4955  -4.6465  -3.2765  -0.4354   0.1432   0.8368
     2.1440   2.4160   2.7091   2.8356   2.8564   3.1580

     occupation numbers 
     1.0000   1.0000   1.0000   1.0000  -0.0312   0.0000   0.0000   0.0000
     0.0000   0.0000   0.0000   0.0000   0.0000   0.0000

          k =-0.3500-0.3753 0.0000 ( 31050 PWs)   bands (ev):

   -11.2024  -9.4137  -5.4886  -4.6483  -3.2769  -0.4485   0.1644   0.8260
     2.1456   2.4159   2.7091   2.8356   2.8561   3.1576

     occupation numbers 
     1.0000   1.0000   1.0000   1.0000  -0.0311   0.0000   0.0000   0.0000
     0.0000   0.0000   0.0000   0.0000   0.0000   0.0000

          k = 0.5000-0.1155 0.0000 ( 31050 PWs)   bands (ev):

   -11.2072  -9.4044  -5.4956  -4.6466  -3.2764  -0.4355   0.1432   0.8368
     2.1440   2.4160   2.7091   2.8356   2.8564   3.1572

     occupation numbers 
     1.0000   1.0000   1.0000   1.0000  -0.0312   0.0000   0.0000   0.0000
     0.0000   0.0000   0.0000   0.0000   0.0000   0.0000

          k =-0.1500 0.5485 0.0000 ( 31035 PWs)   bands (ev):

   -10.9826  -9.6954  -5.5420  -4.4883  -3.4840  -0.3754   0.0337   1.0192
     1.8993   2.8396   3.1454   3.2338   3.2853   3.3668

     occupation numbers 
     1.0000   1.0000   1.0000   1.0000   0.2503   0.0000   0.0000   0.0000
     0.0000   0.0000   0.0000   0.0000   0.0000   0.0000

          k =-0.4000 0.4041 0.0000 ( 31035 PWs)   bands (ev):

   -11.0053  -9.6594  -5.5541  -4.4993  -3.4660  -0.3907   0.0263   1.0149
     1.9063   2.8389   3.1458   3.2350   3.2852   3.3672

     occupation numbers 
     1.0000   1.0000   1.0000   1.0000   0.2045   0.0000   0.0000   0.0000
     0.0000   0.0000   0.0000   0.0000   0.0000   0.0000

          k = 0.5500 0.1443 0.0000 ( 31035 PWs)   bands (ev):

   -11.0075  -9.6557  -5.5563  -4.4987  -3.4659  -0.3834   0.0165   1.0192
     1.9049   2.8400   3.1456   3.2343   3.2853   3.3671

     occupation numbers 
     1.0000   1.0000   1.0000   1.0000   0.2044   0.0000   0.0000   0.0000
     0.0000   0.0000   0.0000   0.0000   0.0000   0.0000

          k =-0.4000-0.4041 0.0000 ( 31035 PWs)   bands (ev):

   -11.0052  -9.6595  -5.5540  -4.4993  -3.4661  -0.3907   0.0264   1.0149
     1.9062   2.8389   3.1458   3.2351   3.2852   3.3674

     occupation numbers 
     1.0000   1.0000   1.0000   1.0000   0.2047   0.0000   0.0000   0.0000
     0.0000   0.0000   0.0000   0.0000   0.0000   0.0000

          k = 0.5500-0.1443 0.0000 ( 31035 PWs)   bands (ev):

   -11.0076  -9.6555  -5.5564  -4.4987  -3.4659  -0.3835   0.0165   1.0192
     1.9049   2.8400   3.1456   3.2343   3.2853   3.3672

     occupation numbers 
     1.0000   1.0000   1.0000   1.0000   0.2042   0.0000   0.0000   0.0000
     0.0000   0.0000   0.0000   0.0000   0.0000   0.0000

          k =-0.2000 0.3464 0.0000 ( 31037 PWs)   bands (ev):

   -11.7652  -8.6152  -5.1681  -5.0638  -2.7218  -0.1642   0.0936   0.8936
     1.5517   1.6429   1.9385   2.0597   2.1248   2.4381

     occupation numbers 
     1.0000   1.0000   1.0000   1.0000   0.0000   0.0000   0.0000   0.0000
     0.0000   0.0000   0.0000   0.0000   0.0000   0.0000

          k = 0.4000 0.0000 0.0000 ( 31037 PWs)   bands (ev):

   -11.7713  -8.5964  -5.1862  -5.0605  -2.7185  -0.1763   0.1202   0.8718
     1.5391   1.6453   1.9383   2.0599   2.1239   2.4385

     occupation numbers 
     1.0000   1.0000   1.0000   1.0000   0.0000   0.0000   0.0000   0.0000
     0.0000   0.0000   0.0000   0.0000   0.0000   0.0000

          k =-0.2000 0.4041 0.0000 ( 31048 PWs)   bands (ev):

   -11.4989  -8.9865  -5.4532  -4.8895  -2.9455  -0.0911   0.1941   0.8369
     1.8936   1.9652   2.2630   2.3852   2.4358   2.7598

     occupation numbers 
     1.0000   1.0000   1.0000   1.0000  -0.0028   0.0000   0.0000   0.0000
     0.0000   0.0000   0.0000   0.0000   0.0000   0.0000

          k =-0.2500 0.3753 0.0000 ( 31048 PWs)   bands (ev):

   -11.5011  -8.9811  -5.4553  -4.8912  -2.9425  -0.1054   0.2069   0.8266
     1.8975   1.9675   2.2632   2.3851   2.4366   2.7594

     occupation numbers 
     1.0000   1.0000   1.0000   1.0000  -0.0027   0.0000   0.0000   0.0000
     0.0000   0.0000   0.0000   0.0000   0.0000   0.0000

          k = 0.4500 0.0289 0.0000 ( 31048 PWs)   bands (ev):

   -11.5082  -8.9633  -5.4698  -4.8896  -2.9391  -0.0947   0.1965   0.8268
     1.8820   1.9681   2.2629   2.3853   2.4355   2.7583

     occupation numbers 
     1.0000   1.0000   1.0000   1.0000  -0.0026   0.0000   0.0000   0.0000
     0.0000   0.0000   0.0000   0.0000   0.0000   0.0000

          k =-0.2500-0.3753 0.0000 ( 31048 PWs)   bands (ev):

   -11.5011  -8.9812  -5.4553  -4.8912  -2.9425  -0.1054   0.2069   0.8266
     1.8975   1.9674   2.2633   2.3851   2.4368   2.7579

     occupation numbers 
     1.0000   1.0000   1.0000   1.0000  -0.0027   0.0000   0.0000   0.0000
     0.0000   0.0000   0.0000   0.0000   0.0000   0.0000

          k = 0.4500-0.0289 0.0000 ( 31048 PWs)   bands (ev):

   -11.5082  -8.9633  -5.4698  -4.8896  -2.9391  -0.0947   0.1965   0.8268
     1.8820   1.9681   2.2629   2.3854   2.4356   2.7608

     occupation numbers 
     1.0000   1.0000   1.0000   1.0000  -0.0026   0.0000   0.0000   0.0000
     0.0000   0.0000   0.0000   0.0000   0.0000   0.0000

          k =-0.2000 0.4619 0.0000 ( 31027 PWs)   bands (ev):

   -11.2142  -9.3588  -5.6598  -4.6751  -3.2039  -0.1415   0.2856   0.8590
     2.2860   2.3340   2.6385   2.7528   2.7998   2.8751

     occupation numbers 
     1.0000   1.0000   1.0000   1.0000  -0.0337   0.0000   0.0000   0.0000
     0.0000   0.0000   0.0000   0.0000   0.0000   0.0000

          k =-0.3000 0.4041 0.0000 ( 31027 PWs)   bands (ev):

   -11.2208  -9.3458  -5.6650  -4.6788  -3.1970  -0.1570   0.2986   0.8430
     2.2896   2.3347   2.6388   2.7531   2.8013   2.8807

     occupation numbers 
     1.0000   1.0000   1.0000   1.0000  -0.0329   0.0000   0.0000   0.0000
     0.0000   0.0000   0.0000   0.0000   0.0000   0.0000

          k = 0.5000 0.0577 0.0000 ( 31027 PWs)   bands (ev):

   -11.2284  -9.3306  -5.6750  -4.6785  -3.1939  -0.1427   0.2719   0.8581
     2.2876   2.3278   2.6386   2.7530   2.8012   2.8771

     occupation numbers 
     1.0000   1.0000   1.0000   1.0000  -0.0326   0.0000   0.0000   0.0000
     0.0000   0.0000   0.0000   0.0000   0.0000   0.0000

          k =-0.3000-0.4041 0.0000 ( 31027 PWs)   bands (ev):

   -11.2208  -9.3460  -5.6650  -4.6788  -3.1970  -0.1570   0.2987   0.8430
     2.2896   2.3348   2.6388   2.7531   2.8013   2.8808

     occupation numbers 
     1.0000   1.0000   1.0000   1.0000  -0.0329   0.0000   0.0000   0.0000
     0.0000   0.0000   0.0000   0.0000   0.0000   0.0000

          k = 0.5000-0.0577 0.0000 ( 31027 PWs)   bands (ev):

   -11.2284  -9.3305  -5.6750  -4.6785  -3.1939  -0.1428   0.2719   0.8581
     2.2876   2.3278   2.6387   2.7531   2.8012   2.8771

     occupation numbers 
     1.0000   1.0000   1.0000   1.0000  -0.0326   0.0000   0.0000   0.0000
     0.0000   0.0000   0.0000   0.0000   0.0000   0.0000

          k =-0.2000 0.5196 0.0000 ( 31041 PWs)   bands (ev):

   -10.9486  -9.6820  -5.7838  -4.4622  -3.4484  -0.1955   0.3142   0.9826
     2.1438   2.7507   3.0519   3.1633   3.1895   3.2785

     occupation numbers 
     1.0000   1.0000   1.0000   1.0000   0.1635   0.0000   0.0000   0.0000
     0.0000   0.0000   0.0000   0.0000   0.0000   0.0000

          k =-0.3500 0.4330 0.0000 ( 31041 PWs)   bands (ev):

   -10.9641  -9.6576  -5.7920  -4.4698  -3.4360  -0.2081   0.3170   0.9706
     2.1489   2.7499   3.0520   3.1637   3.1896   3.2843

     occupation numbers 
     1.0000   1.0000   1.0000   1.0000   0.1368   0.0000   0.0000   0.0000
     0.0000   0.0000   0.0000   0.0000   0.0000   0.0000

          k = 0.5500 0.0866 0.0000 ( 31041 PWs)   bands (ev):

   -10.9703  -9.6474  -5.7970  -4.4701  -3.4340  -0.2002   0.3004   0.9818
     2.1471   2.7500   3.0520   3.1630   3.1896   3.2774

     occupation numbers 
     1.0000   1.0000   1.0000   1.0000   0.1327   0.0000   0.0000   0.0000
     0.0000   0.0000   0.0000   0.0000   0.0000   0.0000

          k =-0.3500-0.4330 0.0000 ( 31041 PWs)   bands (ev):

   -10.9640  -9.6577  -5.7919  -4.4698  -3.4360  -0.2081   0.3170   0.9706
     2.1488   2.7499   3.0520   3.1637   3.1895   3.2844

     occupation numbers 
     1.0000   1.0000   1.0000   1.0000   0.1369   0.0000   0.0000   0.0000
     0.0000   0.0000   0.0000   0.0000   0.0000   0.0000

          k = 0.5500-0.0866 0.0000 ( 31041 PWs)   bands (ev):

   -10.9704  -9.6473  -5.7970  -4.4702  -3.4339  -0.2003   0.3005   0.9818
     2.1471   2.7500   3.0520   3.1631   3.1897   3.2774

     occupation numbers 
     1.0000   1.0000   1.0000   1.0000   0.1326   0.0000   0.0000   0.0000
     0.0000   0.0000   0.0000   0.0000   0.0000   0.0000

          k =-0.4000 0.4619 0.0000 ( 31080 PWs)   bands (ev):

   -10.8440  -9.7955  -5.8359  -4.3662  -3.5500  -0.2254   0.3093   1.0641
     2.0081   3.1539   3.2728   3.3971   3.4802   3.5518

     occupation numbers 
     1.0000   1.0000   1.0000   1.0001   0.4420   0.0000   0.0000   0.0000
     0.0000   0.0000   0.0000   0.0000   0.0000   0.0000

          k = 0.6000 0.1155 0.0000 ( 31080 PWs)   bands (ev):

   -10.8438  -9.7957  -5.8358  -4.3662  -3.5500  -0.2254   0.3094   1.0641
     2.0081   3.1539   3.2728   3.3971   3.4806   3.5517

     occupation numbers 
     1.0000   1.0000   1.0000   1.0001   0.4423   0.0000   0.0000   0.0000
     0.0000   0.0000   0.0000   0.0000   0.0000   0.0000

          k =-0.2500 0.4330 0.0000 ( 31045 PWs)   bands (ev):

   -11.2255  -9.3236  -5.7281  -4.6889  -3.1676  -0.1361   0.3576   1.1271
     2.0534   2.2936   2.6082   2.7304   2.7519   2.8826

     occupation numbers 
     1.0000   1.0000   1.0000   1.0000  -0.0288   0.0000   0.0000   0.0000
     0.0000   0.0000   0.0000   0.0000   0.0000   0.0000

          k = 0.5000 0.0000 0.0000 ( 31045 PWs)   bands (ev):

   -11.2363  -9.3017  -5.7411  -4.6903  -3.1611  -0.1346   0.3483   1.1341
     2.0342   2.2957   2.6079   2.7308   2.7507   2.8894

     occupation numbers 
     1.0000   1.0000   1.0000   1.0000  -0.0278   0.0000   0.0000   0.0000
     0.0000   0.0000   0.0000   0.0000   0.0000   0.0000

          k =-0.2500 0.4907 0.0000 ( 31064 PWs)   bands (ev):

   -10.9375  -9.6602  -5.9205  -4.4547  -3.4136  -0.3079   0.6585   1.2344
     2.3651   2.5988   2.8230   2.9837   3.0678   3.1430

     occupation numbers 
     1.0000   1.0000   1.0000   1.0000   0.0941   0.0000   0.0000   0.0000
     0.0000   0.0000   0.0000   0.0000   0.0000   0.0000

          k =-0.3000 0.4619 0.0000 ( 31064 PWs)   bands (ev):

   -10.9429  -9.6515  -5.9234  -4.4573  -3.4092  -0.3115   0.6625   1.2226
     2.3681   2.6007   2.8262   2.9842   3.0679   3.1427

     occupation numbers 
     1.0000   1.0000   1.0000   1.0000   0.0864   0.0000   0.0000   0.0000
     0.0000   0.0000   0.0000   0.0000   0.0000   0.0000

          k = 0.5500 0.0289 0.0000 ( 31064 PWs)   bands (ev):

   -10.9542  -9.6331  -5.9316  -4.4597  -3.4036  -0.3114   0.6505   1.2385
     2.3572   2.5960   2.8270   2.9831   3.0662   3.1432

     occupation numbers 
     1.0000   1.0000   1.0000   1.0000   0.0771   0.0000   0.0000   0.0000
     0.0000   0.0000   0.0000   0.0000   0.0000   0.0000

          k =-0.3000-0.4619 0.0000 ( 31064 PWs)   bands (ev):

   -10.9428  -9.6517  -5.9234  -4.4573  -3.4093  -0.3115   0.6626   1.2226
     2.3681   2.6007   2.8262   2.9843   3.0680   3.1429

     occupation numbers 
     1.0000   1.0000   1.0000   1.0000   0.0865   0.0000   0.0000   0.0000
     0.0000   0.0000   0.0000   0.0000   0.0000   0.0000

          k = 0.5500-0.0289 0.0000 ( 31064 PWs)   bands (ev):

   -10.9542  -9.6330  -5.9316  -4.4597  -3.4036  -0.3114   0.6505   1.2384
     2.3572   2.5960   2.8269   2.9833   3.0664   3.1431

     occupation numbers 
     1.0000   1.0000   1.0000   1.0000   0.0771   0.0000   0.0000   0.0000
     0.0000   0.0000   0.0000   0.0000   0.0000   0.0000

          k =-0.2500 0.5485 0.0000 ( 31100 PWs)   bands (ev):

   -10.6946  -9.9287  -6.0183  -4.2512  -3.6234  -0.4010   0.9081   1.1858
     2.2585   2.9556   3.1294   3.3395   3.4781   3.5866

     occupation numbers 
     1.0000   1.0000   1.0000   1.0011   0.6666   0.0000   0.0000   0.0000
     0.0000   0.0000   0.0000   0.0000   0.0000   0.0000

          k =-0.3500 0.4907 0.0000 ( 31100 PWs)   bands (ev):

   -10.7130  -9.9040  -6.0243  -4.2597  -3.6117  -0.4058   0.9131   1.1714
     2.2605   2.9584   3.1274   3.3385   3.4776   3.5855

     occupation numbers 
     1.0000   1.0000   1.0000   1.0010   0.6319   0.0000   0.0000   0.0000
     0.0000   0.0000   0.0000   0.0000   0.0000   0.0000

          k = 0.6000 0.0577 0.0000 ( 31100 PWs)   bands (ev):

   -10.7198  -9.8948  -6.0271  -4.2614  -3.6088  -0.4058   0.9015   1.1851
     2.2594   2.9540   3.1263   3.3350   3.4772   3.5861

     occupation numbers 
     1.0000   1.0000   1.0000   1.0009   0.6235   0.0000   0.0000   0.0000
     0.0000   0.0000   0.0000   0.0000   0.0000   0.0000

          k =-0.3500-0.4907 0.0000 ( 31100 PWs)   bands (ev):

   -10.7129  -9.9042  -6.0242  -4.2596  -3.6117  -0.4058   0.9131   1.1714
     2.2605   2.9584   3.1274   3.3385   3.4776   3.5849

     occupation numbers 
     1.0000   1.0000   1.0000   1.0010   0.6321   0.0000   0.0000   0.0000
     0.0000   0.0000   0.0000   0.0000   0.0000   0.0000

          k = 0.6000-0.0577 0.0000 ( 31100 PWs)   bands (ev):

   -10.7199  -9.8947  -6.0271  -4.2614  -3.6088  -0.4059   0.9015   1.1851
     2.2594   2.9540   3.1263   3.3350   3.4771   3.5850

     occupation numbers 
     1.0000   1.0000   1.0000   1.0009   0.6233   0.0000   0.0000   0.0000
     0.0000   0.0000   0.0000   0.0000   0.0000   0.0000

          k =-0.3000 0.5196 0.0000 ( 31104 PWs)   bands (ev):

   -10.6529  -9.9570  -6.0886  -4.2148  -3.6395  -0.4704   1.0228   1.4393
     2.6013   2.6072   2.9583   3.1680   3.4444   3.5678

     occupation numbers 
     1.0000   1.0000   1.0000   1.0020   0.7123   0.0000   0.0000   0.0000
     0.0000   0.0000   0.0000   0.0000   0.0000   0.0000

          k = 0.6000 0.0000 0.0000 ( 31104 PWs)   bands (ev):

   -10.6708  -9.9336  -6.0944  -4.2210  -3.6307  -0.4726   1.0133   1.4526
     2.5870   2.6126   2.9461   3.1704   3.4442   3.5669

     occupation numbers 
     1.0000   1.0000   1.0000   1.0018   0.6874   0.0000   0.0000   0.0000
     0.0000   0.0000   0.0000   0.0000   0.0000   0.0000

          k =-0.3500 0.5485 0.0000 ( 31098 PWs)   bands (ev):

   -10.4708 -10.1410  -6.1480  -4.0540  -3.7938  -0.5292   1.2745   1.3545
     2.5809   2.7078   3.1225   3.5400   3.6597   3.9112

     occupation numbers 
     1.0000   1.0000   1.0000   1.0151   0.9967   0.0000   0.0000   0.0000
     0.0000   0.0000   0.0000   0.0000   0.0000   0.0000

          k = 0.6500 0.0289 0.0000 ( 31098 PWs)   bands (ev):

   -10.4707 -10.1411  -6.1480  -4.0539  -3.7939  -0.5292   1.2745   1.3545
     2.5809   2.7078   3.1225   3.5400   3.6598   3.9111

     occupation numbers 
     1.0000   1.0000   1.0000   1.0151   0.9968   0.0000   0.0000   0.0000
     0.0000   0.0000   0.0000   0.0000   0.0000   0.0000

     the Fermi energy is    -3.5687 ev

!    total energy              =     -14.14137490 Ry
     Harris-Foulkes estimate   =     -14.14137490 Ry
     estimated scf accuracy    <          8.6E-10 Ry

     The total energy is the sum of the following terms:

     one-electron contribution =    -155.48263434 Ry
     hartree contribution      =      78.11051934 Ry
     xc contribution           =      -3.95881255 Ry
     ewald contribution        =      67.18987969 Ry
     smearing contrib. (-TS)   =      -0.00032703 Ry

     convergence has been achieved in   7 iterations

     Writing output data file SnMLbands.save
 
     init_run     :      5.75s CPU     11.81s WALL (       1 calls)
     electrons    :    167.08s CPU    339.92s WALL (       1 calls)

     Called by init_run:
     wfcinit      :      5.59s CPU     11.45s WALL (       1 calls)
     potinit      :      0.03s CPU      0.08s WALL (       1 calls)

     Called by electrons:
     c_bands      :    145.68s CPU    296.14s WALL (       8 calls)
     sum_band     :     21.12s CPU     43.06s WALL (       8 calls)
     v_of_rho     :      0.03s CPU      0.07s WALL (       8 calls)
     v_h          :      0.01s CPU      0.03s WALL (       8 calls)
     v_xc         :      0.02s CPU      0.04s WALL (       8 calls)
     mix_rho      :      0.02s CPU      0.07s WALL (       8 calls)

     Called by c_bands:
     init_us_2    :      0.98s CPU      1.11s WALL (    3434 calls)
     cegterg      :    144.83s CPU    293.17s WALL (    1616 calls)

     Called by sum_band:

     Called by *egterg:
     h_psi        :    119.93s CPU    237.72s WALL (    9602 calls)
     g_psi        :      0.59s CPU      1.31s WALL (    7784 calls)
     cdiaghg      :     11.52s CPU     21.98s WALL (    9198 calls)
     cegterg:over :      5.75s CPU      9.85s WALL (    7784 calls)
     cegterg:upda :      4.83s CPU     13.76s WALL (    7784 calls)
     cegterg:last :      1.62s CPU      9.20s WALL (    1886 calls)
     cdiaghg:chol :      0.83s CPU      1.09s WALL (    9198 calls)
     cdiaghg:inve :      0.03s CPU      0.31s WALL (    9198 calls)
     cdiaghg:para :      1.09s CPU      1.78s WALL (   18396 calls)

     Called by h_psi:
     h_psi:vloc   :    115.17s CPU    230.15s WALL (    9602 calls)
     h_psi:vnl    :      4.62s CPU      7.18s WALL (    9602 calls)
     add_vuspsi   :      0.08s CPU      0.91s WALL (    9602 calls)

     General routines
     calbec       :      4.54s CPU      6.24s WALL (    9602 calls)
     fft          :      0.05s CPU      0.11s WALL (      33 calls)
     fftw         :    128.75s CPU    260.37s WALL (  159050 calls)
     davcio       :      0.06s CPU      2.47s WALL (    5050 calls)
 
     Parallel routines
     fft_scatter  :     54.00s CPU    160.65s WALL (  159083 calls)
 
     PWSCF        :  2m53.23s CPU     5m53.22s WALL

 
   This run was terminated on:  12:12:39  26May2015            

=------------------------------------------------------------------------------=
   JOB DONE.
=------------------------------------------------------------------------------=
