
     Program PWSCF v.5.0.2 (svn rev. 9656) starts on 12May2015 at 17:23:14 

     This program is part of the open-source Quantum ESPRESSO suite
     for quantum simulation of materials; please cite
         "P. Giannozzi et al., J. Phys.:Condens. Matter 21 395502 (2009);
          URL http://www.quantum-espresso.org", 
     in publications or presentations arising from this work. More details at
     http://www.quantum-espresso.org/quote.php

     Parallel version (MPI), running on    20 processors
     R & G space division:  proc/nbgrp/npool/nimage =      20

     Current dimensions of program PWSCF are:
     Max number of different atomic species (ntypx) = 10
     Max number of k-points (npk) =  40000
     Max angular momentum in pseudopotentials (lmaxx) =  3
     Waiting for input...
     Reading input from standard input
Warning: card &IONS ignored
Warning: card / ignored
Warning: card &CELL ignored
Warning: card CELL_DOFREE = '2DXY' ignored
Warning: card / ignored

     Atomic positions and unit cell read from directory:
     /tmp/SnBLbands.76487.mn.hopper.antwerpen.vsc/SnBLbands.save/
 

     Subspace diagonalization in iterative solution of the eigenvalue problem:
     scalapack distributed-memory algorithm (size of sub-group:  3*  3 procs)

 
     Parallelization info
     --------------------
     sticks:   dense  smooth     PW     G-vecs:    dense   smooth      PW
     Min          59      59     18                 8317     8317    1370
     Max          60      60     19                 8332     8332    1385
     Sum        1189    1189    361               166445   166445   27451
 


     bravais-lattice index     =            4
     lattice parameter (alat)  =       9.3028  a.u.
     unit-cell volume          =    3486.1357 (a.u.)^3
     number of atoms/cell      =            4
     number of atomic types    =            1
     number of electrons       =        16.00
     number of Kohn-Sham states=           16
     kinetic-energy cutoff     =      50.0000  Ry
     charge density cutoff     =     200.0000  Ry
     Exchange-correlation      =  SLA  PZ   NOGX NOGC ( 1 1 0 0 0)
     EXX-fraction              =        0.00

     celldm(1)=   9.302819  celldm(2)=   0.000000  celldm(3)=   5.000000
     celldm(4)=   0.000000  celldm(5)=   0.000000  celldm(6)=   0.000000

     crystal axes: (cart. coord. in units of alat)
               a(1) = (   1.000000   0.000000   0.000000 )  
               a(2) = (  -0.500000   0.866025   0.000000 )  
               a(3) = (   0.000000   0.000000   5.000000 )  

     reciprocal axes: (cart. coord. in units 2 pi/alat)
               b(1) = (  1.000000  0.577350  0.000000 )  
               b(2) = (  0.000000  1.154701  0.000000 )  
               b(3) = (  0.000000  0.000000  0.200000 )  


     PseudoPot. # 1 for Sn read from file:
     /user/antwerpen/201/vsc20155/DFT/QEspresso/pseudopotentials/Sn.pz-bhs.UPF
     MD5 check sum: ef254960ae38efa59c08c9b90b3bf6f4
     Pseudo is Norm-conserving, Zval =  4.0
     Generated by new atomic code, or converted to UPF format
     Using radial grid of  601 points,  2 beta functions with: 
                l(1) =   0
                l(2) =   1

     atomic species   valence    mass     pseudopotential
        Sn             4.00   118.71000     Sn( 1.00)

     12 Sym. Ops. (no inversion) found
          (note: 12 additional sym.ops. were found but ignored
           their fractional translations are incommensurate with FFT grid)


   Cartesian axes

     site n.     atom                  positions (alat units)
         1           Sn  tau(   1) = (   0.5000000   0.2886751   0.1017883  )
         2           Sn  tau(   2) = (   0.0000000   0.5773503   0.1017785  )
         3           Sn  tau(   3) = (   0.5000000   0.2886751   0.7151797  )
         4           Sn  tau(   4) = (   0.0000000   0.5773503   0.7151677  )

     number of k points=   301  Methfessel-Paxton smearing, width (Ry)=  0.0200

     Number of k-points >= 100: set verbosity='high' to print them.

     Dense  grid:   166445 G-vectors     FFT dimensions: (  45,  45, 216)

     Largest allocated arrays     est. size (Mb)     dimensions
        Kohn-Sham Wavefunctions         0.25 Mb     (   1043,   16)
        NL pseudopotentials             0.25 Mb     (   1043,   16)
        Each V/rho on FFT grid          0.34 Mb     (  22275)
        Each G-vector array             0.06 Mb     (   8332)
        G-vector shells                 0.02 Mb     (   2485)
     Largest temporary arrays     est. size (Mb)     dimensions
        Auxiliary wavefunctions         1.02 Mb     (   1043,   64)
        Each subspace H/S matrix        0.01 Mb     (  21,  21)
        Each <psi_i|beta_j> matrix      0.00 Mb     (     16,   16)

     The potential is recalculated from file :
     /tmp/SnBLbands.76487.mn.hopper.antwerpen.vsc/SnBLbands.save/charge-density.dat

     Starting wfc are   16 randomized atomic wfcs

     total cpu time spent up to now is        0.8 secs

     per-process dynamical memory:     6.2 Mb

     Band Structure Calculation
     Davidson diagonalization with overlap

     ethr =  6.25E-11,  avg # of iterations = 34.5

     total cpu time spent up to now is      135.8 secs

     End of band structure calculation

     Number of k-points >= 100: set verbosity='high' to print the bands.

     Writing output data file SnBLbands.save
 
     init_run     :      0.21s CPU      0.28s WALL (       1 calls)
     electrons    :    129.96s CPU    134.96s WALL (       1 calls)

     Called by init_run:
     wfcinit      :      0.00s CPU      0.00s WALL (       1 calls)
     potinit      :      0.03s CPU      0.06s WALL (       1 calls)

     Called by electrons:
     c_bands      :    129.95s CPU    134.94s WALL (       1 calls)
     v_of_rho     :      0.00s CPU      0.02s WALL (       1 calls)

     Called by c_bands:
     init_us_2    :      0.01s CPU      0.05s WALL (     301 calls)
     cegterg      :    122.37s CPU    124.09s WALL (     706 calls)

     Called by *egterg:
     h_psi        :     84.00s CPU     84.59s WALL (   11391 calls)
     g_psi        :      0.22s CPU      0.99s WALL (   10384 calls)
     cdiaghg      :     25.83s CPU     26.92s WALL (   10685 calls)

     Called by h_psi:
     add_vuspsi   :      0.06s CPU      0.91s WALL (   11391 calls)

     General routines
     calbec       :      6.43s CPU      1.72s WALL (   11391 calls)
     fft          :      0.00s CPU      0.02s WALL (       3 calls)
     fftw         :     73.13s CPU     75.94s WALL (  171730 calls)
     davcio       :      0.01s CPU      0.48s WALL (     301 calls)
 
     Parallel routines
     fft_scatter  :     22.78s CPU     16.27s WALL (  171733 calls)
 
     PWSCF        :  2m10.88s CPU     2m16.35s WALL

 
   This run was terminated on:  17:25:30  12May2015            

=------------------------------------------------------------------------------=
   JOB DONE.
=------------------------------------------------------------------------------=
