
     Program PWSCF v.5.0.2 (svn rev. 9656) starts on 29Aug2015 at  1: 9:51 

     This program is part of the open-source Quantum ESPRESSO suite
     for quantum simulation of materials; please cite
         "P. Giannozzi et al., J. Phys.:Condens. Matter 21 395502 (2009);
          URL http://www.quantum-espresso.org", 
     in publications or presentations arising from this work. More details at
     http://www.quantum-espresso.org/quote.php

     Parallel version (MPI), running on    20 processors
     R & G space division:  proc/nbgrp/npool/nimage =      20

     Current dimensions of program PWSCF are:
     Max number of different atomic species (ntypx) = 10
     Max number of k-points (npk) =  40000
     Max angular momentum in pseudopotentials (lmaxx) =  3
     Waiting for input...
     Reading input from standard input
Warning: card &CELL ignored
Warning: card CELL_DOFREE = '2DXY' ignored
Warning: card / ignored

     Subspace diagonalization in iterative solution of the eigenvalue problem:
     scalapack distributed-memory algorithm (size of sub-group:  3*  3 procs)

 
     Parallelization info
     --------------------
     sticks:   dense  smooth     PW     G-vecs:    dense   smooth      PW
     Min          59      59     16                 8317     8317    1240
     Max          60      60     19                 8332     8332    1255
     Sum        1189    1189    349               166445   166445   24951
 


     bravais-lattice index     =            4
     lattice parameter (alat)  =       9.3028  a.u.
     unit-cell volume          =    3486.1357 (a.u.)^3
     number of atoms/cell      =            4
     number of atomic types    =            1
     number of electrons       =        16.00
     number of Kohn-Sham states=           16
     kinetic-energy cutoff     =      50.0000  Ry
     charge density cutoff     =     200.0000  Ry
     convergence threshold     =      1.0E-12
     mixing beta               =       0.7000
     number of iterations used =            8  plain     mixing
     Exchange-correlation      =  SLA  PZ   NOGX NOGC ( 1 1 0 0 0)
     EXX-fraction              =        0.00
     nstep                     =           50


     celldm(1)=   9.302819  celldm(2)=   0.000000  celldm(3)=   5.000000
     celldm(4)=   0.000000  celldm(5)=   0.000000  celldm(6)=   0.000000

     crystal axes: (cart. coord. in units of alat)
               a(1) = (   1.000000   0.000000   0.000000 )  
               a(2) = (  -0.500000   0.866025   0.000000 )  
               a(3) = (   0.000000   0.000000   5.000000 )  

     reciprocal axes: (cart. coord. in units 2 pi/alat)
               b(1) = (  1.000000  0.577350  0.000000 )  
               b(2) = (  0.000000  1.154701  0.000000 )  
               b(3) = (  0.000000  0.000000  0.200000 )  


     PseudoPot. # 1 for Sn read from file:
     /user/antwerpen/201/vsc20155/DFT/QEspresso/pseudopotentials/Sn.pz-bhs.UPF
     MD5 check sum: ef254960ae38efa59c08c9b90b3bf6f4
     Pseudo is Norm-conserving, Zval =  4.0
     Generated by new atomic code, or converted to UPF format
     Using radial grid of  601 points,  2 beta functions with: 
                l(1) =   0
                l(2) =   1

     atomic species   valence    mass     pseudopotential
        Sn             4.00   118.71000     Sn( 1.00)

     No symmetry found



   Cartesian axes

     site n.     atom                  positions (alat units)
         1           Sn  tau(   1) = (   0.5300000   0.2886751   0.1017883  )
         2           Sn  tau(   2) = (   0.0000000   0.5773503   0.1017785  )
         3           Sn  tau(   3) = (   0.5000000   0.2886751   0.7151797  )
         4           Sn  tau(   4) = (   0.0000000   0.5773503   0.7151677  )

     number of k points=   452  Methfessel-Paxton smearing, width (Ry)=  0.0200

     Number of k-points >= 100: set verbosity='high' to print them.

     Dense  grid:   166445 G-vectors     FFT dimensions: (  45,  45, 216)

     Largest allocated arrays     est. size (Mb)     dimensions
        Kohn-Sham Wavefunctions         0.26 Mb     (   1079,   16)
        NL pseudopotentials             0.26 Mb     (   1079,   16)
        Each V/rho on FFT grid          0.34 Mb     (  22275)
        Each G-vector array             0.06 Mb     (   8332)
        G-vector shells                 0.02 Mb     (   2447)
     Largest temporary arrays     est. size (Mb)     dimensions
        Auxiliary wavefunctions         1.05 Mb     (   1079,   64)
        Each subspace H/S matrix        0.01 Mb     (  21,  21)
        Each <psi_i|beta_j> matrix      0.00 Mb     (     16,   16)
        Arrays for rho mixing           2.72 Mb     (  22275,   8)

     Initial potential from superposition of free atoms
     Check: negative starting charge=   -0.000277

     starting charge   15.99419, renormalised to   16.00000

     negative rho (up, down):  0.277E-03 0.000E+00
     Starting wfc are   16 randomized atomic wfcs

     total cpu time spent up to now is        9.7 secs

     per-process dynamical memory:     5.8 Mb

     Self-consistent Calculation

     iteration #  1     ecut=    50.00 Ry     beta=0.70
     Davidson diagonalization with overlap
     ethr =  1.00E-02,  avg # of iterations =  5.7

     Threshold (ethr) on eigenvalues was too large:
     Diagonalizing with lowered threshold

     Davidson diagonalization with overlap
     ethr =  5.28E-04,  avg # of iterations =  2.4

     negative rho (up, down):  0.708E-04 0.000E+00

     total cpu time spent up to now is       73.2 secs

     total energy              =     -28.33855770 Ry
     Harris-Foulkes estimate   =     -28.38821426 Ry
     estimated scf accuracy    <       0.08850492 Ry

     iteration #  2     ecut=    50.00 Ry     beta=0.70
     Davidson diagonalization with overlap
     ethr =  5.53E-04,  avg # of iterations =  5.4

     negative rho (up, down):  0.397E-04 0.000E+00

     total cpu time spent up to now is      111.7 secs

     total energy              =     -28.33944720 Ry
     Harris-Foulkes estimate   =     -28.39134709 Ry
     estimated scf accuracy    <       0.10915460 Ry

     iteration #  3     ecut=    50.00 Ry     beta=0.70
     Davidson diagonalization with overlap
     ethr =  5.53E-04,  avg # of iterations =  2.3

     negative rho (up, down):  0.122E-04 0.000E+00

     total cpu time spent up to now is      139.0 secs

     total energy              =     -28.36195795 Ry
     Harris-Foulkes estimate   =     -28.36699980 Ry
     estimated scf accuracy    <       0.00974736 Ry

     iteration #  4     ecut=    50.00 Ry     beta=0.70
     Davidson diagonalization with overlap
     ethr =  6.09E-05,  avg # of iterations =  5.6

     negative rho (up, down):  0.382E-05 0.000E+00

     total cpu time spent up to now is      175.9 secs

     total energy              =     -28.35671279 Ry
     Harris-Foulkes estimate   =     -28.37504531 Ry
     estimated scf accuracy    <       0.10711804 Ry

     iteration #  5     ecut=    50.00 Ry     beta=0.70
     Davidson diagonalization with overlap
     ethr =  6.09E-05,  avg # of iterations =  4.4

     negative rho (up, down):  0.836E-07 0.000E+00

     total cpu time spent up to now is      208.3 secs

     total energy              =     -28.36546211 Ry
     Harris-Foulkes estimate   =     -28.36546545 Ry
     estimated scf accuracy    <       0.00002047 Ry

     iteration #  6     ecut=    50.00 Ry     beta=0.70
     Davidson diagonalization with overlap
     ethr =  1.28E-07,  avg # of iterations =  5.9

     negative rho (up, down):  0.215E-07 0.000E+00

     total cpu time spent up to now is      243.5 secs

     total energy              =     -28.36546611 Ry
     Harris-Foulkes estimate   =     -28.36546617 Ry
     estimated scf accuracy    <       0.00000021 Ry

     iteration #  7     ecut=    50.00 Ry     beta=0.70
     Davidson diagonalization with overlap
     ethr =  1.31E-09,  avg # of iterations =  2.1

     total cpu time spent up to now is      269.3 secs

     total energy              =     -28.36546615 Ry
     Harris-Foulkes estimate   =     -28.36546615 Ry
     estimated scf accuracy    <       0.00000001 Ry

     iteration #  8     ecut=    50.00 Ry     beta=0.70
     Davidson diagonalization with overlap
     ethr =  7.81E-11,  avg # of iterations =  2.0

     total cpu time spent up to now is      294.2 secs

     total energy              =     -28.36546615 Ry
     Harris-Foulkes estimate   =     -28.36546616 Ry
     estimated scf accuracy    <          7.9E-10 Ry

     iteration #  9     ecut=    50.00 Ry     beta=0.70
     Davidson diagonalization with overlap
     ethr =  4.91E-12,  avg # of iterations =  2.0

     total cpu time spent up to now is      319.8 secs

     total energy              =     -28.36546616 Ry
     Harris-Foulkes estimate   =     -28.36546616 Ry
     estimated scf accuracy    <          8.5E-11 Ry

     iteration # 10     ecut=    50.00 Ry     beta=0.70
     Davidson diagonalization with overlap
     ethr =  5.34E-13,  avg # of iterations =  2.0

     total cpu time spent up to now is      344.3 secs

     total energy              =     -28.36546616 Ry
     Harris-Foulkes estimate   =     -28.36546616 Ry
     estimated scf accuracy    <          1.9E-12 Ry

     iteration # 11     ecut=    50.00 Ry     beta=0.70
     Davidson diagonalization with overlap
     ethr =  1.00E-13,  avg # of iterations =  1.0

     total cpu time spent up to now is      366.2 secs

     End of self-consistent calculation

     Number of k-points >= 100: set verbosity='high' to print the bands.

     the Fermi energy is    -1.9454 ev

!    total energy              =     -28.36546616 Ry
     Harris-Foulkes estimate   =     -28.36546616 Ry
     estimated scf accuracy    <          1.4E-13 Ry

     The total energy is the sum of the following terms:

     one-electron contribution =    -190.28867401 Ry
     hartree contribution      =      96.69454948 Ry
     xc contribution           =      -8.11104733 Ry
     ewald contribution        =      73.33981388 Ry
     smearing contrib. (-TS)   =      -0.00010818 Ry

     convergence has been achieved in  11 iterations

     Forces acting on atoms (Ry/au):

     atom    1 type  1   force =    -0.04121444   -0.00541451    0.02288462
     atom    2 type  1   force =     0.03852255    0.00546604    0.02255921
     atom    3 type  1   force =     0.00352828   -0.00028451   -0.02288436
     atom    4 type  1   force =    -0.00083639    0.00023298   -0.02255946

     Total force =     0.072941     Total SCF correction =     0.000000

     BFGS Geometry Optimization

     number of scf cycles    =   1
     number of bfgs steps    =   0

     energy   new            =     -28.3654661550 Ry

     new trust radius        =       0.0474515829 bohr
     new conv_thr            =            1.0E-12 Ry


ATOMIC_POSITIONS (crystal)
Sn       0.691900315   0.332661264   0.020849645
Sn       0.337813521   0.667345132   0.020840704
Sn       0.667028279   0.333298018   0.142543951
Sn       0.333257885   0.666695585   0.142548529



     Writing output data file SnBLrelax.save
     Check: negative starting charge=   -0.000277
     NEW-OLD atomic charge density approx. for the potential
     Check: negative starting charge=   -0.000277

     negative rho (up, down):  0.724E-04 0.000E+00

     total cpu time spent up to now is      367.5 secs

     per-process dynamical memory:     5.9 Mb

     Self-consistent Calculation

     iteration #  1     ecut=    50.00 Ry     beta=0.70
     Davidson diagonalization with overlap
     c_bands:  1 eigenvalues not converged
     c_bands:  1 eigenvalues not converged
     c_bands:  1 eigenvalues not converged
     c_bands:  1 eigenvalues not converged
     c_bands:  1 eigenvalues not converged
     c_bands:  1 eigenvalues not converged
     c_bands:  1 eigenvalues not converged
     c_bands:  1 eigenvalues not converged
     c_bands:  1 eigenvalues not converged
     c_bands:  1 eigenvalues not converged
     c_bands:  1 eigenvalues not converged
     c_bands:  1 eigenvalues not converged
     ethr =  1.00E-06,  avg # of iterations =  6.7

     negative rho (up, down):  0.182E-04 0.000E+00

     total cpu time spent up to now is      415.7 secs

     total energy              =     -28.37014925 Ry
     Harris-Foulkes estimate   =     -28.37017056 Ry
     estimated scf accuracy    <       0.00004617 Ry

     iteration #  2     ecut=    50.00 Ry     beta=0.70
     Davidson diagonalization with overlap
     ethr =  2.89E-07,  avg # of iterations =  3.5

     negative rho (up, down):  0.147E-04 0.000E+00

     total cpu time spent up to now is      446.0 secs

     total energy              =     -28.37011736 Ry
     Harris-Foulkes estimate   =     -28.37018964 Ry
     estimated scf accuracy    <       0.00023969 Ry

     iteration #  3     ecut=    50.00 Ry     beta=0.70
     Davidson diagonalization with overlap
     ethr =  2.89E-07,  avg # of iterations =  2.6

     negative rho (up, down):  0.878E-05 0.000E+00

     total cpu time spent up to now is      472.3 secs

     total energy              =     -28.37014609 Ry
     Harris-Foulkes estimate   =     -28.37017793 Ry
     estimated scf accuracy    <       0.00015863 Ry

     iteration #  4     ecut=    50.00 Ry     beta=0.70
     Davidson diagonalization with overlap
     ethr =  2.89E-07,  avg # of iterations =  1.8

     negative rho (up, down):  0.141E-05 0.000E+00

     total cpu time spent up to now is      495.8 secs

     total energy              =     -28.37016223 Ry
     Harris-Foulkes estimate   =     -28.37016405 Ry
     estimated scf accuracy    <       0.00000545 Ry

     iteration #  5     ecut=    50.00 Ry     beta=0.70
     Davidson diagonalization with overlap
     c_bands:  1 eigenvalues not converged
     ethr =  3.41E-08,  avg # of iterations =  3.2

     negative rho (up, down):  0.215E-06 0.000E+00

     total cpu time spent up to now is      522.9 secs

     total energy              =     -28.37016305 Ry
     Harris-Foulkes estimate   =     -28.37016305 Ry
     estimated scf accuracy    <       0.00000002 Ry

     iteration #  6     ecut=    50.00 Ry     beta=0.70
     Davidson diagonalization with overlap
     ethr =  1.18E-10,  avg # of iterations =  3.0

     negative rho (up, down):  0.125E-07 0.000E+00

     total cpu time spent up to now is      551.2 secs

     total energy              =     -28.37016306 Ry
     Harris-Foulkes estimate   =     -28.37016306 Ry
     estimated scf accuracy    <          1.4E-09 Ry

     iteration #  7     ecut=    50.00 Ry     beta=0.70
     Davidson diagonalization with overlap
     ethr =  8.83E-12,  avg # of iterations =  2.1

     total cpu time spent up to now is      575.6 secs

     total energy              =     -28.37016306 Ry
     Harris-Foulkes estimate   =     -28.37016306 Ry
     estimated scf accuracy    <          5.5E-11 Ry

     iteration #  8     ecut=    50.00 Ry     beta=0.70
     Davidson diagonalization with overlap
     ethr =  3.45E-13,  avg # of iterations =  2.0

     total cpu time spent up to now is      601.1 secs

     total energy              =     -28.37016306 Ry
     Harris-Foulkes estimate   =     -28.37016306 Ry
     estimated scf accuracy    <          4.5E-12 Ry

     iteration #  9     ecut=    50.00 Ry     beta=0.70
     Davidson diagonalization with overlap
     ethr =  1.00E-13,  avg # of iterations =  1.0

     total cpu time spent up to now is      623.0 secs

     End of self-consistent calculation

     Number of k-points >= 100: set verbosity='high' to print the bands.

     the Fermi energy is    -1.9695 ev

!    total energy              =     -28.37016306 Ry
     Harris-Foulkes estimate   =     -28.37016306 Ry
     estimated scf accuracy    <          4.6E-13 Ry

     The total energy is the sum of the following terms:

     one-electron contribution =    -191.01980672 Ry
     hartree contribution      =      97.05863633 Ry
     xc contribution           =      -8.11895358 Ry
     ewald contribution        =      73.71008252 Ry
     smearing contrib. (-TS)   =      -0.00012161 Ry

     convergence has been achieved in   9 iterations

     Forces acting on atoms (Ry/au):

     atom    1 type  1   force =    -0.02929315   -0.00119465    0.02014761
     atom    2 type  1   force =     0.02664454    0.00122997    0.01994016
     atom    3 type  1   force =     0.00238315   -0.00016629   -0.02015699
     atom    4 type  1   force =     0.00026547    0.00013098   -0.01993078

     Total force =     0.056425     Total SCF correction =     0.000001

     number of scf cycles    =   2
     number of bfgs steps    =   1

     energy   old            =     -28.3654661550 Ry
     energy   new            =     -28.3701630576 Ry

     CASE: energy  _new < energy  _old

     new trust radius        =       0.0711773744 bohr
     new conv_thr            =            1.0E-12 Ry


ATOMIC_POSITIONS (crystal)
Sn       0.685406508   0.332321637   0.021708968
Sn       0.343749976   0.667693582   0.021691005
Sn       0.667523459   0.333255999   0.141684250
Sn       0.333320058   0.666728782   0.141698608



     Writing output data file SnBLrelax.save
     Check: negative starting charge=   -0.000277
     NEW-OLD atomic charge density approx. for the potential
     Check: negative starting charge=   -0.000282

     negative rho (up, down):  0.131E-03 0.000E+00

     total cpu time spent up to now is      624.3 secs

     per-process dynamical memory:     5.9 Mb

     Self-consistent Calculation

     iteration #  1     ecut=    50.00 Ry     beta=0.70
     Davidson diagonalization with overlap
     c_bands:  1 eigenvalues not converged
     c_bands:  1 eigenvalues not converged
     c_bands:  1 eigenvalues not converged
     c_bands:  1 eigenvalues not converged
     c_bands:  1 eigenvalues not converged
     c_bands:  1 eigenvalues not converged
     c_bands:  1 eigenvalues not converged
     c_bands:  1 eigenvalues not converged
     c_bands:  1 eigenvalues not converged
     c_bands:  1 eigenvalues not converged
     c_bands:  1 eigenvalues not converged
     c_bands:  1 eigenvalues not converged
     c_bands:  1 eigenvalues not converged
     c_bands:  1 eigenvalues not converged
     c_bands:  1 eigenvalues not converged
     ethr =  1.00E-06,  avg # of iterations =  8.6

     negative rho (up, down):  0.315E-04 0.000E+00

     total cpu time spent up to now is      678.1 secs

     total energy              =     -28.37516538 Ry
     Harris-Foulkes estimate   =     -28.37521617 Ry
     estimated scf accuracy    <       0.00011134 Ry

     iteration #  2     ecut=    50.00 Ry     beta=0.70
     Davidson diagonalization with overlap
     ethr =  6.96E-07,  avg # of iterations =  3.9

     negative rho (up, down):  0.218E-04 0.000E+00

     total cpu time spent up to now is      709.7 secs

     total energy              =     -28.37514037 Ry
     Harris-Foulkes estimate   =     -28.37523077 Ry
     estimated scf accuracy    <       0.00020768 Ry

     iteration #  3     ecut=    50.00 Ry     beta=0.70
     Davidson diagonalization with overlap
     ethr =  6.96E-07,  avg # of iterations =  4.2

     negative rho (up, down):  0.153E-04 0.000E+00

     total cpu time spent up to now is      741.3 secs

     total energy              =     -28.37515423 Ry
     Harris-Foulkes estimate   =     -28.37522941 Ry
     estimated scf accuracy    <       0.00035388 Ry

     iteration #  4     ecut=    50.00 Ry     beta=0.70
     Davidson diagonalization with overlap
     ethr =  6.96E-07,  avg # of iterations =  2.5

     negative rho (up, down):  0.238E-05 0.000E+00

     total cpu time spent up to now is      766.0 secs

     total energy              =     -28.37519363 Ry
     Harris-Foulkes estimate   =     -28.37519956 Ry
     estimated scf accuracy    <       0.00002385 Ry

     iteration #  5     ecut=    50.00 Ry     beta=0.70
     Davidson diagonalization with overlap
     c_bands:  1 eigenvalues not converged
     ethr =  1.49E-07,  avg # of iterations =  2.7

     negative rho (up, down):  0.331E-06 0.000E+00

     total cpu time spent up to now is      791.0 secs

     total energy              =     -28.37519634 Ry
     Harris-Foulkes estimate   =     -28.37519635 Ry
     estimated scf accuracy    <       0.00000004 Ry

     iteration #  6     ecut=    50.00 Ry     beta=0.70
     Davidson diagonalization with overlap
     ethr =  2.80E-10,  avg # of iterations =  3.0

     negative rho (up, down):  0.185E-07 0.000E+00

     total cpu time spent up to now is      819.8 secs

     total energy              =     -28.37519638 Ry
     Harris-Foulkes estimate   =     -28.37519638 Ry
     estimated scf accuracy    <          6.8E-09 Ry

     iteration #  7     ecut=    50.00 Ry     beta=0.70
     Davidson diagonalization with overlap
     c_bands:  1 eigenvalues not converged
     c_bands:  1 eigenvalues not converged
     ethr =  4.24E-11,  avg # of iterations =  2.2

     total cpu time spent up to now is      844.5 secs

     total energy              =     -28.37519638 Ry
     Harris-Foulkes estimate   =     -28.37519638 Ry
     estimated scf accuracy    <          2.7E-10 Ry

     iteration #  8     ecut=    50.00 Ry     beta=0.70
     Davidson diagonalization with overlap
     ethr =  1.66E-12,  avg # of iterations =  2.2

     total cpu time spent up to now is      870.1 secs

     total energy              =     -28.37519638 Ry
     Harris-Foulkes estimate   =     -28.37519638 Ry
     estimated scf accuracy    <          1.8E-11 Ry

     iteration #  9     ecut=    50.00 Ry     beta=0.70
     Davidson diagonalization with overlap
     ethr =  1.15E-13,  avg # of iterations =  2.0

     total cpu time spent up to now is      894.0 secs

     total energy              =     -28.37519638 Ry
     Harris-Foulkes estimate   =     -28.37519638 Ry
     estimated scf accuracy    <          1.9E-12 Ry

     iteration # 10     ecut=    50.00 Ry     beta=0.70
     Davidson diagonalization with overlap
     ethr =  1.00E-13,  avg # of iterations =  1.0

     total cpu time spent up to now is      915.9 secs

     End of self-consistent calculation

     Number of k-points >= 100: set verbosity='high' to print the bands.

     the Fermi energy is    -2.0100 ev

!    total energy              =     -28.37519638 Ry
     Harris-Foulkes estimate   =     -28.37519638 Ry
     estimated scf accuracy    <          1.2E-14 Ry

     The total energy is the sum of the following terms:

     one-electron contribution =    -192.31080690 Ry
     hartree contribution      =      97.70053674 Ry
     xc contribution           =      -8.13385926 Ry
     ewald contribution        =      74.36904530 Ry
     smearing contrib. (-TS)   =      -0.00011226 Ry

     convergence has been achieved in  10 iterations

     Forces acting on atoms (Ry/au):

     atom    1 type  1   force =    -0.01323325    0.00181233    0.01478435
     atom    2 type  1   force =     0.01070422   -0.00179897    0.01477309
     atom    3 type  1   force =     0.00083490   -0.00002072   -0.01479521
     atom    4 type  1   force =     0.00169414    0.00000736   -0.01476222

     Total force =     0.034255     Total SCF correction =     0.000000

     number of scf cycles    =   3
     number of bfgs steps    =   2

     energy   old            =     -28.3701630576 Ry
     energy   new            =     -28.3751963804 Ry

     CASE: energy  _new < energy  _old

     new trust radius        =       0.1016238789 bohr
     new conv_thr            =            1.0E-12 Ry


ATOMIC_POSITIONS (crystal)
Sn       0.677151887   0.332504742   0.023118219
Sn       0.350942265   0.667521386   0.023092483
Sn       0.668125206   0.333215781   0.140274199
Sn       0.333780642   0.666758091   0.140297929



     Writing output data file SnBLrelax.save
     Check: negative starting charge=   -0.000282
     NEW-OLD atomic charge density approx. for the potential
     Check: negative starting charge=   -0.000294

     negative rho (up, down):  0.217E-03 0.000E+00

     total cpu time spent up to now is      917.2 secs

     per-process dynamical memory:     5.9 Mb

     Self-consistent Calculation

     iteration #  1     ecut=    50.00 Ry     beta=0.70
     Davidson diagonalization with overlap
     c_bands:  1 eigenvalues not converged
     c_bands:  1 eigenvalues not converged
     c_bands:  1 eigenvalues not converged
     c_bands:  1 eigenvalues not converged
     c_bands:  1 eigenvalues not converged
     c_bands:  1 eigenvalues not converged
     c_bands:  1 eigenvalues not converged
     c_bands:  1 eigenvalues not converged
     c_bands:  1 eigenvalues not converged
     c_bands:  1 eigenvalues not converged
     c_bands:  1 eigenvalues not converged
     c_bands:  1 eigenvalues not converged
     c_bands:  1 eigenvalues not converged
     c_bands:  1 eigenvalues not converged
     c_bands:  1 eigenvalues not converged
     c_bands:  1 eigenvalues not converged
     c_bands:  1 eigenvalues not converged
     c_bands:  1 eigenvalues not converged
     c_bands:  1 eigenvalues not converged
     c_bands:  1 eigenvalues not converged
     c_bands:  1 eigenvalues not converged
     c_bands:  1 eigenvalues not converged
     c_bands:  1 eigenvalues not converged
     c_bands:  1 eigenvalues not converged
     c_bands:  1 eigenvalues not converged
     c_bands:  1 eigenvalues not converged
     c_bands:  1 eigenvalues not converged
     c_bands:  1 eigenvalues not converged
     c_bands:  1 eigenvalues not converged
     c_bands:  1 eigenvalues not converged
     c_bands:  1 eigenvalues not converged
     c_bands:  1 eigenvalues not converged
     c_bands:  1 eigenvalues not converged
     c_bands:  1 eigenvalues not converged
     c_bands:  1 eigenvalues not converged
     c_bands:  1 eigenvalues not converged
     c_bands:  1 eigenvalues not converged
     c_bands:  1 eigenvalues not converged
     c_bands:  1 eigenvalues not converged
     c_bands:  1 eigenvalues not converged
     c_bands:  1 eigenvalues not converged
     c_bands:  1 eigenvalues not converged
     c_bands:  1 eigenvalues not converged
     c_bands:  1 eigenvalues not converged
     c_bands:  1 eigenvalues not converged
     c_bands:  1 eigenvalues not converged
     c_bands:  1 eigenvalues not converged
     c_bands:  1 eigenvalues not converged
     ethr =  1.00E-06,  avg # of iterations = 10.6

     negative rho (up, down):  0.497E-04 0.000E+00

     total cpu time spent up to now is      977.8 secs

     total energy              =     -28.37796471 Ry
     Harris-Foulkes estimate   =     -28.37808846 Ry
     estimated scf accuracy    <       0.00026144 Ry

     iteration #  2     ecut=    50.00 Ry     beta=0.70
     Davidson diagonalization with overlap
     ethr =  1.63E-06,  avg # of iterations =  4.5

     negative rho (up, down):  0.303E-04 0.000E+00

     total cpu time spent up to now is     1013.5 secs

     total energy              =     -28.37797280 Ry
     Harris-Foulkes estimate   =     -28.37810547 Ry
     estimated scf accuracy    <       0.00026988 Ry

     iteration #  3     ecut=    50.00 Ry     beta=0.70
     Davidson diagonalization with overlap
     ethr =  1.63E-06,  avg # of iterations =  4.6

     negative rho (up, down):  0.823E-05 0.000E+00

     total cpu time spent up to now is     1044.5 secs

     total energy              =     -28.37803224 Ry
     Harris-Foulkes estimate   =     -28.37804445 Ry
     estimated scf accuracy    <       0.00002642 Ry

     iteration #  4     ecut=    50.00 Ry     beta=0.70
     Davidson diagonalization with overlap
     ethr =  1.65E-07,  avg # of iterations =  4.0

     negative rho (up, down):  0.357E-05 0.000E+00

     total cpu time spent up to now is     1073.3 secs

     total energy              =     -28.37802323 Ry
     Harris-Foulkes estimate   =     -28.37805879 Ry
     estimated scf accuracy    <       0.00018039 Ry

     iteration #  5     ecut=    50.00 Ry     beta=0.70
     Davidson diagonalization with overlap
     ethr =  1.65E-07,  avg # of iterations =  1.7

     negative rho (up, down):  0.462E-06 0.000E+00

     total cpu time spent up to now is     1096.4 secs

     total energy              =     -28.37804056 Ry
     Harris-Foulkes estimate   =     -28.37804061 Ry
     estimated scf accuracy    <       0.00000029 Ry

     iteration #  6     ecut=    50.00 Ry     beta=0.70
     Davidson diagonalization with overlap
     ethr =  1.80E-09,  avg # of iterations =  3.0

     negative rho (up, down):  0.296E-07 0.000E+00

     total cpu time spent up to now is     1122.8 secs

     total energy              =     -28.37804061 Ry
     Harris-Foulkes estimate   =     -28.37804061 Ry
     estimated scf accuracy    <          5.2E-09 Ry

     iteration #  7     ecut=    50.00 Ry     beta=0.70
     Davidson diagonalization with overlap
     ethr =  3.26E-11,  avg # of iterations =  2.4

     total cpu time spent up to now is     1149.4 secs

     total energy              =     -28.37804061 Ry
     Harris-Foulkes estimate   =     -28.37804061 Ry
     estimated scf accuracy    <          1.9E-10 Ry

     iteration #  8     ecut=    50.00 Ry     beta=0.70
     Davidson diagonalization with overlap
     ethr =  1.18E-12,  avg # of iterations =  2.0

     total cpu time spent up to now is     1174.2 secs

     total energy              =     -28.37804061 Ry
     Harris-Foulkes estimate   =     -28.37804061 Ry
     estimated scf accuracy    <          1.2E-11 Ry

     iteration #  9     ecut=    50.00 Ry     beta=0.70
     Davidson diagonalization with overlap
     ethr =  1.00E-13,  avg # of iterations =  2.0

     total cpu time spent up to now is     1198.6 secs

     End of self-consistent calculation

     Number of k-points >= 100: set verbosity='high' to print the bands.

     the Fermi energy is    -2.0747 ev

!    total energy              =     -28.37804061 Ry
     Harris-Foulkes estimate   =     -28.37804061 Ry
     estimated scf accuracy    <          6.8E-13 Ry

     The total energy is the sum of the following terms:

     one-electron contribution =    -194.45427401 Ry
     hartree contribution      =      98.76458860 Ry
     xc contribution           =      -8.16051810 Ry
     ewald contribution        =      75.47214878 Ry
     smearing contrib. (-TS)   =       0.00001412 Ry

     convergence has been achieved in   9 iterations

     Forces acting on atoms (Ry/au):

     atom    1 type  1   force =     0.00703628    0.00165744    0.00409543
     atom    2 type  1   force =    -0.00926159   -0.00166820    0.00441916
     atom    3 type  1   force =    -0.00093129    0.00009844   -0.00408746
     atom    4 type  1   force =     0.00315660   -0.00008767   -0.00442712

     Total force =     0.014976     Total SCF correction =     0.000000

     number of scf cycles    =   4
     number of bfgs steps    =   3

     energy   old            =     -28.3751963804 Ry
     energy   new            =     -28.3780406124 Ry

     CASE: energy  _new < energy  _old

     new trust radius        =       0.0091504217 bohr
     new conv_thr            =            1.0E-12 Ry


ATOMIC_POSITIONS (crystal)
Sn       0.677785449   0.332662183   0.023222671
Sn       0.350062666   0.667362911   0.023203494
Sn       0.668048562   0.333226098   0.140169928
Sn       0.334103324   0.666748808   0.140186737



     Writing output data file SnBLrelax.save
     Check: negative starting charge=   -0.000294
     NEW-OLD atomic charge density approx. for the potential
     Check: negative starting charge=   -0.000295

     negative rho (up, down):  0.114E-04 0.000E+00

     total cpu time spent up to now is     1200.0 secs

     per-process dynamical memory:     5.9 Mb

     Self-consistent Calculation

     iteration #  1     ecut=    50.00 Ry     beta=0.70
     Davidson diagonalization with overlap
     ethr =  1.00E-06,  avg # of iterations =  3.0

     Threshold (ethr) on eigenvalues was too large:
     Diagonalizing with lowered threshold

     Davidson diagonalization with overlap
     ethr =  9.01E-09,  avg # of iterations =  2.5

     negative rho (up, down):  0.295E-05 0.000E+00

     total cpu time spent up to now is     1255.6 secs

     total energy              =     -28.37822346 Ry
     Harris-Foulkes estimate   =     -28.37822421 Ry
     estimated scf accuracy    <       0.00000173 Ry

     iteration #  2     ecut=    50.00 Ry     beta=0.70
     Davidson diagonalization with overlap
     ethr =  1.08E-08,  avg # of iterations =  2.1

     negative rho (up, down):  0.177E-05 0.000E+00

     total cpu time spent up to now is     1281.4 secs

     total energy              =     -28.37822348 Ry
     Harris-Foulkes estimate   =     -28.37822427 Ry
     estimated scf accuracy    <       0.00000156 Ry

     iteration #  3     ecut=    50.00 Ry     beta=0.70
     Davidson diagonalization with overlap
     ethr =  9.72E-09,  avg # of iterations =  2.1

     negative rho (up, down):  0.848E-06 0.000E+00

     total cpu time spent up to now is     1306.7 secs

     total energy              =     -28.37822375 Ry
     Harris-Foulkes estimate   =     -28.37822397 Ry
     estimated scf accuracy    <       0.00000049 Ry

     iteration #  4     ecut=    50.00 Ry     beta=0.70
     Davidson diagonalization with overlap
     ethr =  3.08E-09,  avg # of iterations =  1.7

     negative rho (up, down):  0.209E-06 0.000E+00

     total cpu time spent up to now is     1329.9 secs

     total energy              =     -28.37822373 Ry
     Harris-Foulkes estimate   =     -28.37822410 Ry
     estimated scf accuracy    <       0.00000188 Ry

     iteration #  5     ecut=    50.00 Ry     beta=0.70
     Davidson diagonalization with overlap
     ethr =  3.08E-09,  avg # of iterations =  1.7

     negative rho (up, down):  0.171E-07 0.000E+00

     total cpu time spent up to now is     1353.0 secs

     total energy              =     -28.37822390 Ry
     Harris-Foulkes estimate   =     -28.37822391 Ry
     estimated scf accuracy    <          8.9E-10 Ry

     iteration #  6     ecut=    50.00 Ry     beta=0.70
     Davidson diagonalization with overlap
     ethr =  5.56E-12,  avg # of iterations =  3.1

     total cpu time spent up to now is     1381.0 secs

     total energy              =     -28.37822391 Ry
     Harris-Foulkes estimate   =     -28.37822391 Ry
     estimated scf accuracy    <          6.6E-11 Ry

     iteration #  7     ecut=    50.00 Ry     beta=0.70
     Davidson diagonalization with overlap
     ethr =  4.15E-13,  avg # of iterations =  2.0

     total cpu time spent up to now is     1405.6 secs

     total energy              =     -28.37822391 Ry
     Harris-Foulkes estimate   =     -28.37822391 Ry
     estimated scf accuracy    <          3.3E-12 Ry

     iteration #  8     ecut=    50.00 Ry     beta=0.70
     Davidson diagonalization with overlap
     ethr =  1.00E-13,  avg # of iterations =  1.0

     total cpu time spent up to now is     1427.4 secs

     End of self-consistent calculation

     Number of k-points >= 100: set verbosity='high' to print the bands.

     the Fermi energy is    -2.0798 ev

!    total energy              =     -28.37822391 Ry
     Harris-Foulkes estimate   =     -28.37822391 Ry
     estimated scf accuracy    <          1.1E-13 Ry

     The total energy is the sum of the following terms:

     one-electron contribution =    -194.61898997 Ry
     hartree contribution      =      98.84636215 Ry
     xc contribution           =      -8.16263556 Ry
     ewald contribution        =      75.55701217 Ry
     smearing contrib. (-TS)   =       0.00002730 Ry

     convergence has been achieved in   8 iterations

     Forces acting on atoms (Ry/au):

     atom    1 type  1   force =     0.00529955    0.00138769    0.00321411
     atom    2 type  1   force =    -0.00746954   -0.00139680    0.00345746
     atom    3 type  1   force =    -0.00030203    0.00010619   -0.00320791
     atom    4 type  1   force =     0.00247203   -0.00009708   -0.00346366

     Total force =     0.011771     Total SCF correction =     0.000000

     number of scf cycles    =   5
     number of bfgs steps    =   4

     energy   old            =     -28.3780406124 Ry
     energy   new            =     -28.3782239055 Ry

     CASE: energy  _new < energy  _old

     new trust radius        =       0.0100654639 bohr
     new conv_thr            =            1.0E-12 Ry


ATOMIC_POSITIONS (crystal)
Sn       0.678434401   0.332846233   0.023336442
Sn       0.349085819   0.667177646   0.023324010
Sn       0.668031731   0.333242048   0.140056348
Sn       0.334448049   0.666734072   0.140066029



     Writing output data file SnBLrelax.save
     Check: negative starting charge=   -0.000295
     NEW-OLD atomic charge density approx. for the potential
     Check: negative starting charge=   -0.000295

     negative rho (up, down):  0.125E-04 0.000E+00

     total cpu time spent up to now is     1428.7 secs

     per-process dynamical memory:     5.9 Mb

     Self-consistent Calculation

     iteration #  1     ecut=    50.00 Ry     beta=0.70
     Davidson diagonalization with overlap
     ethr =  1.00E-06,  avg # of iterations =  3.1

     Threshold (ethr) on eigenvalues was too large:
     Diagonalizing with lowered threshold

     Davidson diagonalization with overlap
     ethr =  1.09E-08,  avg # of iterations =  2.4

     negative rho (up, down):  0.323E-05 0.000E+00

     total cpu time spent up to now is     1484.8 secs

     total energy              =     -28.37837201 Ry
     Harris-Foulkes estimate   =     -28.37837290 Ry
     estimated scf accuracy    <       0.00000203 Ry

     iteration #  2     ecut=    50.00 Ry     beta=0.70
     Davidson diagonalization with overlap
     ethr =  1.27E-08,  avg # of iterations =  2.2

     negative rho (up, down):  0.194E-05 0.000E+00

     total cpu time spent up to now is     1510.6 secs

     total energy              =     -28.37837205 Ry
     Harris-Foulkes estimate   =     -28.37837297 Ry
     estimated scf accuracy    <       0.00000181 Ry

     iteration #  3     ecut=    50.00 Ry     beta=0.70
     Davidson diagonalization with overlap
     ethr =  1.13E-08,  avg # of iterations =  2.0

     negative rho (up, down):  0.727E-06 0.000E+00

     total cpu time spent up to now is     1535.9 secs

     total energy              =     -28.37837241 Ry
     Harris-Foulkes estimate   =     -28.37837259 Ry
     estimated scf accuracy    <       0.00000038 Ry

     iteration #  4     ecut=    50.00 Ry     beta=0.70
     Davidson diagonalization with overlap
     ethr =  2.37E-09,  avg # of iterations =  2.1

     negative rho (up, down):  0.226E-06 0.000E+00

     total cpu time spent up to now is     1560.2 secs

     total energy              =     -28.37837235 Ry
     Harris-Foulkes estimate   =     -28.37837275 Ry
     estimated scf accuracy    <       0.00000204 Ry

     iteration #  5     ecut=    50.00 Ry     beta=0.70
     Davidson diagonalization with overlap
     ethr =  2.37E-09,  avg # of iterations =  1.6

     negative rho (up, down):  0.194E-07 0.000E+00

     total cpu time spent up to now is     1583.4 secs

     total energy              =     -28.37837254 Ry
     Harris-Foulkes estimate   =     -28.37837254 Ry
     estimated scf accuracy    <          1.5E-09 Ry

     iteration #  6     ecut=    50.00 Ry     beta=0.70
     Davidson diagonalization with overlap
     ethr =  9.26E-12,  avg # of iterations =  2.7

     total cpu time spent up to now is     1610.0 secs

     total energy              =     -28.37837254 Ry
     Harris-Foulkes estimate   =     -28.37837254 Ry
     estimated scf accuracy    <          4.9E-11 Ry

     iteration #  7     ecut=    50.00 Ry     beta=0.70
     Davidson diagonalization with overlap
     ethr =  3.05E-13,  avg # of iterations =  2.0

     total cpu time spent up to now is     1635.4 secs

     total energy              =     -28.37837254 Ry
     Harris-Foulkes estimate   =     -28.37837254 Ry
     estimated scf accuracy    <          2.9E-12 Ry

     iteration #  8     ecut=    50.00 Ry     beta=0.70
     Davidson diagonalization with overlap
     ethr =  1.00E-13,  avg # of iterations =  1.0

     total cpu time spent up to now is     1657.2 secs

     End of self-consistent calculation

     Number of k-points >= 100: set verbosity='high' to print the bands.

     the Fermi energy is    -2.0853 ev

!    total energy              =     -28.37837254 Ry
     Harris-Foulkes estimate   =     -28.37837254 Ry
     estimated scf accuracy    <          1.2E-13 Ry

     The total energy is the sum of the following terms:

     one-electron contribution =    -194.79825526 Ry
     hartree contribution      =      98.93533562 Ry
     xc contribution           =      -8.16495512 Ry
     ewald contribution        =      75.64945971 Ry
     smearing contrib. (-TS)   =       0.00004251 Ry

     convergence has been achieved in   8 iterations

     Forces acting on atoms (Ry/au):

     atom    1 type  1   force =     0.00345896    0.00104212    0.00223576
     atom    2 type  1   force =    -0.00555852   -0.00104947    0.00239359
     atom    3 type  1   force =     0.00028697    0.00010380   -0.00223156
     atom    4 type  1   force =     0.00181259   -0.00009645   -0.00239779

     Total force =     0.008360     Total SCF correction =     0.000000

     number of scf cycles    =   6
     number of bfgs steps    =   5

     energy   old            =     -28.3782239055 Ry
     energy   new            =     -28.3783725409 Ry

     CASE: energy  _new < energy  _old

     new trust radius        =       0.0150981958 bohr
     new conv_thr            =            1.0E-12 Ry


ATOMIC_POSITIONS (crystal)
Sn       0.679335196   0.333129161   0.023498409
Sn       0.347586640   0.666892707   0.023495180
Sn       0.668118572   0.333272495   0.139894655
Sn       0.334959592   0.666705636   0.139894587



     Writing output data file SnBLrelax.save
     Check: negative starting charge=   -0.000295
     NEW-OLD atomic charge density approx. for the potential
     Check: negative starting charge=   -0.000296

     negative rho (up, down):  0.188E-04 0.000E+00

     total cpu time spent up to now is     1658.5 secs

     per-process dynamical memory:     5.9 Mb

     Self-consistent Calculation

     iteration #  1     ecut=    50.00 Ry     beta=0.70
     Davidson diagonalization with overlap
     ethr =  1.00E-06,  avg # of iterations =  3.9

     Threshold (ethr) on eigenvalues was too large:
     Diagonalizing with lowered threshold

     Davidson diagonalization with overlap
     ethr =  2.49E-08,  avg # of iterations =  1.8

     negative rho (up, down):  0.486E-05 0.000E+00

     total cpu time spent up to now is     1716.7 secs

     total energy              =     -28.37849834 Ry
     Harris-Foulkes estimate   =     -28.37850019 Ry
     estimated scf accuracy    <       0.00000427 Ry

     iteration #  2     ecut=    50.00 Ry     beta=0.70
     Davidson diagonalization with overlap
     ethr =  2.67E-08,  avg # of iterations =  2.3

     negative rho (up, down):  0.291E-05 0.000E+00

     total cpu time spent up to now is     1742.8 secs

     total energy              =     -28.37849844 Ry
     Harris-Foulkes estimate   =     -28.37850032 Ry
     estimated scf accuracy    <       0.00000369 Ry

     iteration #  3     ecut=    50.00 Ry     beta=0.70
     Davidson diagonalization with overlap
     ethr =  2.31E-08,  avg # of iterations =  2.0

     negative rho (up, down):  0.688E-06 0.000E+00

     total cpu time spent up to now is     1768.1 secs

     total energy              =     -28.37849931 Ry
     Harris-Foulkes estimate   =     -28.37849952 Ry
     estimated scf accuracy    <       0.00000048 Ry

     iteration #  4     ecut=    50.00 Ry     beta=0.70
     Davidson diagonalization with overlap
     ethr =  3.00E-09,  avg # of iterations =  2.6

     negative rho (up, down):  0.344E-06 0.000E+00

     total cpu time spent up to now is     1793.9 secs

     total energy              =     -28.37849921 Ry
     Harris-Foulkes estimate   =     -28.37849968 Ry
     estimated scf accuracy    <       0.00000231 Ry

     iteration #  5     ecut=    50.00 Ry     beta=0.70
     Davidson diagonalization with overlap
     ethr =  3.00E-09,  avg # of iterations =  1.7

     negative rho (up, down):  0.377E-07 0.000E+00

     total cpu time spent up to now is     1817.0 secs

     total energy              =     -28.37849944 Ry
     Harris-Foulkes estimate   =     -28.37849944 Ry
     estimated scf accuracy    <          7.3E-09 Ry

     iteration #  6     ecut=    50.00 Ry     beta=0.70
     Davidson diagonalization with overlap
     ethr =  4.59E-11,  avg # of iterations =  2.2

     total cpu time spent up to now is     1841.3 secs

     total energy              =     -28.37849944 Ry
     Harris-Foulkes estimate   =     -28.37849944 Ry
     estimated scf accuracy    <          8.8E-11 Ry

     iteration #  7     ecut=    50.00 Ry     beta=0.70
     Davidson diagonalization with overlap
     ethr =  5.48E-13,  avg # of iterations =  2.5

     total cpu time spent up to now is     1868.3 secs

     total energy              =     -28.37849944 Ry
     Harris-Foulkes estimate   =     -28.37849944 Ry
     estimated scf accuracy    <          4.4E-12 Ry

     iteration #  8     ecut=    50.00 Ry     beta=0.70
     Davidson diagonalization with overlap
     ethr =  1.00E-13,  avg # of iterations =  1.0

     total cpu time spent up to now is     1890.2 secs

     End of self-consistent calculation

     Number of k-points >= 100: set verbosity='high' to print the bands.

     the Fermi energy is    -2.0931 ev

!    total energy              =     -28.37849944 Ry
     Harris-Foulkes estimate   =     -28.37849944 Ry
     estimated scf accuracy    <          2.8E-13 Ry

     The total energy is the sum of the following terms:

     one-electron contribution =    -195.05343324 Ry
     hartree contribution      =      99.06194928 Ry
     xc contribution           =      -8.16828386 Ry
     ewald contribution        =      75.78120286 Ry
     smearing contrib. (-TS)   =       0.00006551 Ry

     convergence has been achieved in   8 iterations

     Forces acting on atoms (Ry/au):

     atom    1 type  1   force =     0.00076300    0.00046698    0.00081021
     atom    2 type  1   force =    -0.00274060   -0.00047182    0.00084549
     atom    3 type  1   force =     0.00101622    0.00008428   -0.00080912
     atom    4 type  1   force =     0.00096138   -0.00007944   -0.00084659

     Total force =     0.003640     Total SCF correction =     0.000000

     number of scf cycles    =   7
     number of bfgs steps    =   6

     energy   old            =     -28.3783725409 Ry
     energy   new            =     -28.3784994397 Ry

     CASE: energy  _new < energy  _old

     new trust radius        =       0.0112935166 bohr
     new conv_thr            =            1.0E-12 Ry


ATOMIC_POSITIONS (crystal)
Sn       0.679876120   0.333338074   0.023606827
Sn       0.346424798   0.666681974   0.023609079
Sn       0.668342767   0.333302650   0.139786407
Sn       0.335356315   0.666677302   0.139780517



     Writing output data file SnBLrelax.save
     Check: negative starting charge=   -0.000296
     NEW-OLD atomic charge density approx. for the potential
     Check: negative starting charge=   -0.000296

     negative rho (up, down):  0.124E-04 0.000E+00

     total cpu time spent up to now is     1891.5 secs

     per-process dynamical memory:     5.9 Mb

     Self-consistent Calculation

     iteration #  1     ecut=    50.00 Ry     beta=0.70
     Davidson diagonalization with overlap
     c_bands:  1 eigenvalues not converged
     ethr =  1.00E-06,  avg # of iterations =  3.3

     Threshold (ethr) on eigenvalues was too large:
     Diagonalizing with lowered threshold

     Davidson diagonalization with overlap
     ethr =  1.11E-08,  avg # of iterations =  2.3

     negative rho (up, down):  0.322E-05 0.000E+00

     total cpu time spent up to now is     1947.9 secs

     total energy              =     -28.37852794 Ry
     Harris-Foulkes estimate   =     -28.37852879 Ry
     estimated scf accuracy    <       0.00000205 Ry

     iteration #  2     ecut=    50.00 Ry     beta=0.70
     Davidson diagonalization with overlap
     ethr =  1.28E-08,  avg # of iterations =  2.1

     negative rho (up, down):  0.188E-05 0.000E+00

     total cpu time spent up to now is     1973.6 secs

     total energy              =     -28.37852798 Ry
     Harris-Foulkes estimate   =     -28.37852880 Ry
     estimated scf accuracy    <       0.00000159 Ry

     iteration #  3     ecut=    50.00 Ry     beta=0.70
     Davidson diagonalization with overlap
     ethr =  9.91E-09,  avg # of iterations =  2.1

     negative rho (up, down):  0.280E-06 0.000E+00

     total cpu time spent up to now is     1999.0 secs

     total energy              =     -28.37852839 Ry
     Harris-Foulkes estimate   =     -28.37852846 Ry
     estimated scf accuracy    <       0.00000019 Ry

     iteration #  4     ecut=    50.00 Ry     beta=0.70
     Davidson diagonalization with overlap
     ethr =  1.21E-09,  avg # of iterations =  2.5

     negative rho (up, down):  0.189E-06 0.000E+00

     total cpu time spent up to now is     2025.2 secs

     total energy              =     -28.37852840 Ry
     Harris-Foulkes estimate   =     -28.37852843 Ry
     estimated scf accuracy    <       0.00000008 Ry

     iteration #  5     ecut=    50.00 Ry     beta=0.70
     Davidson diagonalization with overlap
     ethr =  5.24E-10,  avg # of iterations =  1.5

     negative rho (up, down):  0.232E-07 0.000E+00

     total cpu time spent up to now is     2047.9 secs

     total energy              =     -28.37852842 Ry
     Harris-Foulkes estimate   =     -28.37852843 Ry
     estimated scf accuracy    <       0.00000004 Ry

     iteration #  6     ecut=    50.00 Ry     beta=0.70
     Davidson diagonalization with overlap
     c_bands:  1 eigenvalues not converged
     c_bands:  1 eigenvalues not converged
     ethr =  2.74E-10,  avg # of iterations =  1.2

     total cpu time spent up to now is     2070.2 secs

     total energy              =     -28.37852842 Ry
     Harris-Foulkes estimate   =     -28.37852842 Ry
     estimated scf accuracy    <          4.3E-11 Ry

     iteration #  7     ecut=    50.00 Ry     beta=0.70
     Davidson diagonalization with overlap
     ethr =  2.70E-13,  avg # of iterations =  3.1

     total cpu time spent up to now is     2098.7 secs

     total energy              =     -28.37852842 Ry
     Harris-Foulkes estimate   =     -28.37852842 Ry
     estimated scf accuracy    <          4.7E-12 Ry

     iteration #  8     ecut=    50.00 Ry     beta=0.70
     Davidson diagonalization with overlap
     ethr =  1.00E-13,  avg # of iterations =  1.1

     total cpu time spent up to now is     2120.7 secs

     End of self-consistent calculation

     Number of k-points >= 100: set verbosity='high' to print the bands.

     the Fermi energy is    -2.0984 ev

!    total energy              =     -28.37852842 Ry
     Harris-Foulkes estimate   =     -28.37852842 Ry
     estimated scf accuracy    <          1.6E-13 Ry

     The total energy is the sum of the following terms:

     one-electron contribution =    -195.22395028 Ry
     hartree contribution      =      99.14653385 Ry
     xc contribution           =      -8.17052936 Ry
     ewald contribution        =      75.86933573 Ry
     smearing contrib. (-TS)   =       0.00008165 Ry

     convergence has been achieved in   8 iterations

     Forces acting on atoms (Ry/au):

     atom    1 type  1   force =    -0.00112146    0.00001269   -0.00016694
     atom    2 type  1   force =    -0.00073881   -0.00001577   -0.00020906
     atom    3 type  1   force =     0.00136344    0.00005222    0.00016573
     atom    4 type  1   force =     0.00049682   -0.00004914    0.00021028

     Total force =     0.002014     Total SCF correction =     0.000000

     number of scf cycles    =   8
     number of bfgs steps    =   7

     energy   old            =     -28.3784994397 Ry
     energy   new            =     -28.3785284229 Ry

     CASE: energy  _new < energy  _old

     new trust radius        =       0.0018077261 bohr
     new conv_thr            =            2.9E-13 Ry


ATOMIC_POSITIONS (crystal)
Sn       0.679813075   0.333360645   0.023613024
Sn       0.346222144   0.666658822   0.023614901
Sn       0.668516679   0.333312144   0.139780200
Sn       0.335448102   0.666668389   0.139774705



     Writing output data file SnBLrelax.save
     Check: negative starting charge=   -0.000296
     NEW-OLD atomic charge density approx. for the potential
     Check: negative starting charge=   -0.000296

     negative rho (up, down):  0.137E-05 0.000E+00

     total cpu time spent up to now is     2122.0 secs

     per-process dynamical memory:     5.9 Mb

     Self-consistent Calculation

     iteration #  1     ecut=    50.00 Ry     beta=0.70
     Davidson diagonalization with overlap
     ethr =  1.00E-06,  avg # of iterations =  1.1

     Threshold (ethr) on eigenvalues was too large:
     Diagonalizing with lowered threshold

     Davidson diagonalization with overlap
     ethr =  3.46E-10,  avg # of iterations =  3.0

     negative rho (up, down):  0.343E-06 0.000E+00

     total cpu time spent up to now is     2174.3 secs

     total energy              =     -28.37853270 Ry
     Harris-Foulkes estimate   =     -28.37853271 Ry
     estimated scf accuracy    <       0.00000004 Ry

     iteration #  2     ecut=    50.00 Ry     beta=0.70
     Davidson diagonalization with overlap
     ethr =  2.70E-10,  avg # of iterations =  1.3

     negative rho (up, down):  0.101E-06 0.000E+00

     total cpu time spent up to now is     2196.8 secs

     total energy              =     -28.37853270 Ry
     Harris-Foulkes estimate   =     -28.37853270 Ry
     estimated scf accuracy    <          7.7E-09 Ry

     iteration #  3     ecut=    50.00 Ry     beta=0.70
     Davidson diagonalization with overlap
     ethr =  4.79E-11,  avg # of iterations =  2.0

     negative rho (up, down):  0.129E-07 0.000E+00

     total cpu time spent up to now is     2222.2 secs

     total energy              =     -28.37853270 Ry
     Harris-Foulkes estimate   =     -28.37853270 Ry
     estimated scf accuracy    <          8.2E-09 Ry

     iteration #  4     ecut=    50.00 Ry     beta=0.70
     Davidson diagonalization with overlap
     ethr =  4.79E-11,  avg # of iterations =  2.0

     total cpu time spent up to now is     2247.3 secs

     total energy              =     -28.37853270 Ry
     Harris-Foulkes estimate   =     -28.37853270 Ry
     estimated scf accuracy    <          4.5E-09 Ry

     iteration #  5     ecut=    50.00 Ry     beta=0.70
     Davidson diagonalization with overlap
     ethr =  2.79E-11,  avg # of iterations =  1.0

     total cpu time spent up to now is     2269.2 secs

     total energy              =     -28.37853270 Ry
     Harris-Foulkes estimate   =     -28.37853270 Ry
     estimated scf accuracy    <          2.2E-10 Ry

     iteration #  6     ecut=    50.00 Ry     beta=0.70
     Davidson diagonalization with overlap
     ethr =  1.38E-12,  avg # of iterations =  1.0

     total cpu time spent up to now is     2291.2 secs

     total energy              =     -28.37853270 Ry
     Harris-Foulkes estimate   =     -28.37853270 Ry
     estimated scf accuracy    <          1.2E-12 Ry

     iteration #  7     ecut=    50.00 Ry     beta=0.70
     Davidson diagonalization with overlap
     ethr =  1.00E-13,  avg # of iterations =  1.6

     total cpu time spent up to now is     2314.2 secs

     End of self-consistent calculation

     Number of k-points >= 100: set verbosity='high' to print the bands.

     the Fermi energy is    -2.0987 ev

!    total energy              =     -28.37853270 Ry
     Harris-Foulkes estimate   =     -28.37853270 Ry
     estimated scf accuracy    <          2.4E-13 Ry

     The total energy is the sum of the following terms:

     one-electron contribution =    -195.23323711 Ry
     hartree contribution      =      99.15114753 Ry
     xc contribution           =      -8.17065820 Ry
     ewald contribution        =      75.87413252 Ry
     smearing contrib. (-TS)   =       0.00008257 Ry

     convergence has been achieved in   7 iterations

     Forces acting on atoms (Ry/au):

     atom    1 type  1   force =    -0.00124285   -0.00003722   -0.00022545
     atom    2 type  1   force =    -0.00057301    0.00003443   -0.00026457
     atom    3 type  1   force =     0.00125857    0.00003534    0.00022394
     atom    4 type  1   force =     0.00055729   -0.00003255    0.00026608

     Total force =     0.002004     Total SCF correction =     0.000001

     number of scf cycles    =   9
     number of bfgs steps    =   8

     energy   old            =     -28.3785284229 Ry
     energy   new            =     -28.3785327023 Ry

     CASE: energy  _new < energy  _old


     WARNING: bfgs curvature condition failed, Theta= 0.880
     new trust radius        =       0.0019884987 bohr
     new conv_thr            =            4.3E-14 Ry


ATOMIC_POSITIONS (crystal)
Sn       0.679691015   0.333378640   0.023616527
Sn       0.346011764   0.666640143   0.023617721
Sn       0.668734550   0.333322197   0.139776670
Sn       0.335562671   0.666659021   0.139771912



     Writing output data file SnBLrelax.save
     Check: negative starting charge=   -0.000296
     NEW-OLD atomic charge density approx. for the potential
     Check: negative starting charge=   -0.000296

     negative rho (up, down):  0.161E-05 0.000E+00

     total cpu time spent up to now is     2315.5 secs

     per-process dynamical memory:     5.9 Mb

     Self-consistent Calculation

     iteration #  1     ecut=    50.00 Ry     beta=0.70
     Davidson diagonalization with overlap
     ethr =  1.00E-06,  avg # of iterations =  1.2

     Threshold (ethr) on eigenvalues was too large:
     Diagonalizing with lowered threshold

     Davidson diagonalization with overlap
     ethr =  4.49E-10,  avg # of iterations =  3.1

     negative rho (up, down):  0.408E-06 0.000E+00

     total cpu time spent up to now is     2368.1 secs

     total energy              =     -28.37853807 Ry
     Harris-Foulkes estimate   =     -28.37853808 Ry
     estimated scf accuracy    <       0.00000006 Ry

     iteration #  2     ecut=    50.00 Ry     beta=0.70
     Davidson diagonalization with overlap
     ethr =  3.56E-10,  avg # of iterations =  1.0

     negative rho (up, down):  0.579E-07 0.000E+00

     total cpu time spent up to now is     2390.0 secs

     total energy              =     -28.37853807 Ry
     Harris-Foulkes estimate   =     -28.37853807 Ry
     estimated scf accuracy    <          4.8E-09 Ry

     iteration #  3     ecut=    50.00 Ry     beta=0.70
     Davidson diagonalization with overlap
     ethr =  2.98E-11,  avg # of iterations =  2.0

     negative rho (up, down):  0.136E-07 0.000E+00

     total cpu time spent up to now is     2415.4 secs

     total energy              =     -28.37853807 Ry
     Harris-Foulkes estimate   =     -28.37853808 Ry
     estimated scf accuracy    <          5.8E-09 Ry

     iteration #  4     ecut=    50.00 Ry     beta=0.70
     Davidson diagonalization with overlap
     ethr =  2.98E-11,  avg # of iterations =  2.0

     total cpu time spent up to now is     2440.5 secs

     total energy              =     -28.37853807 Ry
     Harris-Foulkes estimate   =     -28.37853807 Ry
     estimated scf accuracy    <          3.7E-09 Ry

     iteration #  5     ecut=    50.00 Ry     beta=0.70
     Davidson diagonalization with overlap
     ethr =  2.32E-11,  avg # of iterations =  1.0

     total cpu time spent up to now is     2462.3 secs

     total energy              =     -28.37853807 Ry
     Harris-Foulkes estimate   =     -28.37853807 Ry
     estimated scf accuracy    <          1.8E-10 Ry

     iteration #  6     ecut=    50.00 Ry     beta=0.70
     Davidson diagonalization with overlap
     ethr =  1.14E-12,  avg # of iterations =  1.1

     total cpu time spent up to now is     2484.4 secs

     total energy              =     -28.37853807 Ry
     Harris-Foulkes estimate   =     -28.37853807 Ry
     estimated scf accuracy    <          1.3E-12 Ry

     iteration #  7     ecut=    50.00 Ry     beta=0.70
     Davidson diagonalization with overlap
     ethr =  1.00E-13,  avg # of iterations =  1.7

     total cpu time spent up to now is     2507.6 secs

     total energy              =     -28.37853807 Ry
     Harris-Foulkes estimate   =     -28.37853807 Ry
     estimated scf accuracy    <          3.5E-13 Ry

     iteration #  8     ecut=    50.00 Ry     beta=0.70
     Davidson diagonalization with overlap
     ethr =  1.00E-13,  avg # of iterations =  1.0

     total cpu time spent up to now is     2529.5 secs

     total energy              =     -28.37853807 Ry
     Harris-Foulkes estimate   =     -28.37853807 Ry
     estimated scf accuracy    <          4.9E-14 Ry

     iteration #  9     ecut=    50.00 Ry     beta=0.70
     Davidson diagonalization with overlap
     ethr =  1.00E-13,  avg # of iterations =  1.0

     total cpu time spent up to now is     2551.4 secs

     End of self-consistent calculation

     Number of k-points >= 100: set verbosity='high' to print the bands.

     the Fermi energy is    -2.0989 ev

!    total energy              =     -28.37853807 Ry
     Harris-Foulkes estimate   =     -28.37853807 Ry
     estimated scf accuracy    <          4.7E-16 Ry

     The total energy is the sum of the following terms:

     one-electron contribution =    -195.23816959 Ry
     hartree contribution      =      99.15360153 Ry
     xc contribution           =      -8.17073151 Ry
     ewald contribution        =      75.87667841 Ry
     smearing contrib. (-TS)   =       0.00008308 Ry

     convergence has been achieved in   9 iterations

     Forces acting on atoms (Ry/au):

     atom    1 type  1   force =    -0.00129661   -0.00007699   -0.00026006
     atom    2 type  1   force =    -0.00046430    0.00007446   -0.00029216
     atom    3 type  1   force =     0.00111713    0.00001648    0.00025832
     atom    4 type  1   force =     0.00064379   -0.00001395    0.00029390

     Total force =     0.001969     Total SCF correction =     0.000000

     number of scf cycles    =  10
     number of bfgs steps    =   9

     energy   old            =     -28.3785327023 Ry
     energy   new            =     -28.3785380740 Ry

     CASE: energy  _new < energy  _old

     new trust radius        =       0.0029827481 bohr
     new conv_thr            =            5.4E-14 Ry


ATOMIC_POSITIONS (crystal)
Sn       0.679466783   0.333396245   0.023618359
Sn       0.345723583   0.666621525   0.023618461
Sn       0.669061157   0.333334802   0.139774784
Sn       0.335748477   0.666647428   0.139771226



     Writing output data file SnBLrelax.save
     Check: negative starting charge=   -0.000296
     NEW-OLD atomic charge density approx. for the potential
     Check: negative starting charge=   -0.000296

     negative rho (up, down):  0.255E-05 0.000E+00

     total cpu time spent up to now is     2552.7 secs

     per-process dynamical memory:     5.9 Mb

     Self-consistent Calculation

     iteration #  1     ecut=    50.00 Ry     beta=0.70
     Davidson diagonalization with overlap
     ethr =  1.00E-06,  avg # of iterations =  2.1

     Threshold (ethr) on eigenvalues was too large:
     Diagonalizing with lowered threshold

     Davidson diagonalization with overlap
     ethr =  9.48E-10,  avg # of iterations =  3.0

     negative rho (up, down):  0.654E-06 0.000E+00

     total cpu time spent up to now is     2606.1 secs

     total energy              =     -28.37854616 Ry
     Harris-Foulkes estimate   =     -28.37854618 Ry
     estimated scf accuracy    <       0.00000013 Ry

     iteration #  2     ecut=    50.00 Ry     beta=0.70
     Davidson diagonalization with overlap
     ethr =  7.94E-10,  avg # of iterations =  1.0

     negative rho (up, down):  0.536E-07 0.000E+00

     total cpu time spent up to now is     2627.9 secs

     total energy              =     -28.37854616 Ry
     Harris-Foulkes estimate   =     -28.37854617 Ry
     estimated scf accuracy    <          7.7E-09 Ry

     iteration #  3     ecut=    50.00 Ry     beta=0.70
     Davidson diagonalization with overlap
     ethr =  4.78E-11,  avg # of iterations =  2.1

     negative rho (up, down):  0.206E-07 0.000E+00

     total cpu time spent up to now is     2653.3 secs

     total energy              =     -28.37854616 Ry
     Harris-Foulkes estimate   =     -28.37854617 Ry
     estimated scf accuracy    <          3.2E-09 Ry

     iteration #  4     ecut=    50.00 Ry     beta=0.70
     Davidson diagonalization with overlap
     ethr =  2.01E-11,  avg # of iterations =  2.0

     total cpu time spent up to now is     2678.4 secs

     total energy              =     -28.37854616 Ry
     Harris-Foulkes estimate   =     -28.37854616 Ry
     estimated scf accuracy    <          1.4E-10 Ry

     iteration #  5     ecut=    50.00 Ry     beta=0.70
     Davidson diagonalization with overlap
     ethr =  8.74E-13,  avg # of iterations =  2.0

     total cpu time spent up to now is     2703.4 secs

     total energy              =     -28.37854616 Ry
     Harris-Foulkes estimate   =     -28.37854616 Ry
     estimated scf accuracy    <          4.4E-10 Ry

     iteration #  6     ecut=    50.00 Ry     beta=0.70
     Davidson diagonalization with overlap
     ethr =  8.74E-13,  avg # of iterations =  1.5

     total cpu time spent up to now is     2726.2 secs

     total energy              =     -28.37854616 Ry
     Harris-Foulkes estimate   =     -28.37854616 Ry
     estimated scf accuracy    <          1.2E-11 Ry

     iteration #  7     ecut=    50.00 Ry     beta=0.70
     Davidson diagonalization with overlap
     ethr =  1.00E-13,  avg # of iterations =  1.0

     total cpu time spent up to now is     2748.1 secs

     total energy              =     -28.37854616 Ry
     Harris-Foulkes estimate   =     -28.37854616 Ry
     estimated scf accuracy    <          1.7E-13 Ry

     iteration #  8     ecut=    50.00 Ry     beta=0.70
     Davidson diagonalization with overlap
     ethr =  1.00E-13,  avg # of iterations =  1.0

     total cpu time spent up to now is     2769.9 secs

     End of self-consistent calculation

     Number of k-points >= 100: set verbosity='high' to print the bands.

     the Fermi energy is    -2.0990 ev

!    total energy              =     -28.37854616 Ry
     Harris-Foulkes estimate   =     -28.37854616 Ry
     estimated scf accuracy    <          5.1E-15 Ry

     The total energy is the sum of the following terms:

     one-electron contribution =    -195.24027274 Ry
     hartree contribution      =      99.15465835 Ry
     xc contribution           =      -8.17077196 Ry
     ewald contribution        =      75.87775684 Ry
     smearing contrib. (-TS)   =       0.00008334 Ry

     convergence has been achieved in   8 iterations

     Forces acting on atoms (Ry/au):

     atom    1 type  1   force =    -0.00130113   -0.00011594   -0.00028093
     atom    2 type  1   force =    -0.00037556    0.00011371   -0.00030118
     atom    3 type  1   force =     0.00091332   -0.00000802    0.00027900
     atom    4 type  1   force =     0.00076337    0.00001025    0.00030310

     Total force =     0.001902     Total SCF correction =     0.000000

     number of scf cycles    =  11
     number of bfgs steps    =  10

     energy   old            =     -28.3785380740 Ry
     energy   new            =     -28.3785461649 Ry

     CASE: energy  _new < energy  _old

     new trust radius        =       0.0044741221 bohr
     new conv_thr            =            8.1E-14 Ry


ATOMIC_POSITIONS (crystal)
Sn       0.679093571   0.333414733   0.023618914
Sn       0.345299142   0.666601497   0.023617503
Sn       0.669549729   0.333350467   0.139774133
Sn       0.336057558   0.666633302   0.139772280



     Writing output data file SnBLrelax.save
     Check: negative starting charge=   -0.000296
     NEW-OLD atomic charge density approx. for the potential
     Check: negative starting charge=   -0.000297

     negative rho (up, down):  0.413E-05 0.000E+00

     total cpu time spent up to now is     2771.2 secs

     per-process dynamical memory:     5.9 Mb

     Self-consistent Calculation

     iteration #  1     ecut=    50.00 Ry     beta=0.70
     Davidson diagonalization with overlap
     ethr =  1.00E-06,  avg # of iterations =  2.3

     Threshold (ethr) on eigenvalues was too large:
     Diagonalizing with lowered threshold

     Davidson diagonalization with overlap
     ethr =  2.07E-09,  avg # of iterations =  3.0

     negative rho (up, down):  0.107E-05 0.000E+00

     total cpu time spent up to now is     2825.2 secs

     total energy              =     -28.37855788 Ry
     Harris-Foulkes estimate   =     -28.37855793 Ry
     estimated scf accuracy    <       0.00000030 Ry

     iteration #  2     ecut=    50.00 Ry     beta=0.70
     Davidson diagonalization with overlap
     ethr =  1.88E-09,  avg # of iterations =  1.0

     negative rho (up, down):  0.754E-07 0.000E+00

     total cpu time spent up to now is     2847.1 secs

     total energy              =     -28.37855789 Ry
     Harris-Foulkes estimate   =     -28.37855789 Ry
     estimated scf accuracy    <       0.00000002 Ry

     iteration #  3     ecut=    50.00 Ry     beta=0.70
     Davidson diagonalization with overlap
     ethr =  1.05E-10,  avg # of iterations =  1.5

     negative rho (up, down):  0.354E-07 0.000E+00

     total cpu time spent up to now is     2869.8 secs

     total energy              =     -28.37855789 Ry
     Harris-Foulkes estimate   =     -28.37855789 Ry
     estimated scf accuracy    <          2.4E-09 Ry

     iteration #  4     ecut=    50.00 Ry     beta=0.70
     Davidson diagonalization with overlap
     ethr =  1.51E-11,  avg # of iterations =  2.0

     negative rho (up, down):  0.126E-07 0.000E+00

     total cpu time spent up to now is     2895.0 secs

     total energy              =     -28.37855789 Ry
     Harris-Foulkes estimate   =     -28.37855789 Ry
     estimated scf accuracy    <          4.0E-10 Ry

     iteration #  5     ecut=    50.00 Ry     beta=0.70
     Davidson diagonalization with overlap
     ethr =  2.49E-12,  avg # of iterations =  2.0

     total cpu time spent up to now is     2919.1 secs

     total energy              =     -28.37855789 Ry
     Harris-Foulkes estimate   =     -28.37855789 Ry
     estimated scf accuracy    <          1.7E-09 Ry

     iteration #  6     ecut=    50.00 Ry     beta=0.70
     Davidson diagonalization with overlap
     ethr =  2.49E-12,  avg # of iterations =  1.5

     total cpu time spent up to now is     2941.9 secs

     total energy              =     -28.37855789 Ry
     Harris-Foulkes estimate   =     -28.37855789 Ry
     estimated scf accuracy    <          8.7E-12 Ry

     iteration #  7     ecut=    50.00 Ry     beta=0.70
     Davidson diagonalization with overlap
     ethr =  1.00E-13,  avg # of iterations =  1.4

     total cpu time spent up to now is     2964.5 secs

     total energy              =     -28.37855789 Ry
     Harris-Foulkes estimate   =     -28.37855789 Ry
     estimated scf accuracy    <          1.7E-13 Ry

     iteration #  8     ecut=    50.00 Ry     beta=0.70
     Davidson diagonalization with overlap
     ethr =  1.00E-13,  avg # of iterations =  1.0

     total cpu time spent up to now is     2986.3 secs

     End of self-consistent calculation

     Number of k-points >= 100: set verbosity='high' to print the bands.

     the Fermi energy is    -2.0991 ev

!    total energy              =     -28.37855789 Ry
     Harris-Foulkes estimate   =     -28.37855789 Ry
     estimated scf accuracy    <          4.8E-15 Ry

     The total energy is the sum of the following terms:

     one-electron contribution =    -195.24015505 Ry
     hartree contribution      =      99.15461978 Ry
     xc contribution           =      -8.17078923 Ry
     ewald contribution        =      75.87768319 Ry
     smearing contrib. (-TS)   =       0.00008342 Ry

     convergence has been achieved in   8 iterations

     Forces acting on atoms (Ry/au):

     atom    1 type  1   force =    -0.00126091   -0.00015714   -0.00029190
     atom    2 type  1   force =    -0.00028488    0.00015528   -0.00029556
     atom    3 type  1   force =     0.00063837   -0.00003909    0.00028983
     atom    4 type  1   force =     0.00090742    0.00004095    0.00029763

     Total force =     0.001816     Total SCF correction =     0.000000

     number of scf cycles    =  12
     number of bfgs steps    =  11

     energy   old            =     -28.3785461649 Ry
     energy   new            =     -28.3785578866 Ry

     CASE: energy  _new < energy  _old

     new trust radius        =       0.0067111832 bohr
     new conv_thr            =            1.2E-13 Ry


ATOMIC_POSITIONS (crystal)
Sn       0.678491615   0.333433950   0.023618018
Sn       0.344658743   0.666579922   0.023614622
Sn       0.670280427   0.333369428   0.139774871
Sn       0.336569214   0.666616700   0.139775319



     Writing output data file SnBLrelax.save
     Check: negative starting charge=   -0.000297
     NEW-OLD atomic charge density approx. for the potential
     Check: negative starting charge=   -0.000297

     negative rho (up, down):  0.668E-05 0.000E+00

     total cpu time spent up to now is     2987.6 secs

     per-process dynamical memory:     5.9 Mb

     Self-consistent Calculation

     iteration #  1     ecut=    50.00 Ry     beta=0.70
     Davidson diagonalization with overlap
     ethr =  1.00E-06,  avg # of iterations =  2.5

     Threshold (ethr) on eigenvalues was too large:
     Diagonalizing with lowered threshold

     Davidson diagonalization with overlap
     ethr =  4.55E-09,  avg # of iterations =  2.6

     negative rho (up, down):  0.174E-05 0.000E+00

     total cpu time spent up to now is     3041.0 secs

     total energy              =     -28.37857399 Ry
     Harris-Foulkes estimate   =     -28.37857412 Ry
     estimated scf accuracy    <       0.00000072 Ry

     iteration #  2     ecut=    50.00 Ry     beta=0.70
     Davidson diagonalization with overlap
     ethr =  4.50E-09,  avg # of iterations =  1.0

     negative rho (up, down):  0.118E-06 0.000E+00

     total cpu time spent up to now is     3062.9 secs

     total energy              =     -28.37857401 Ry
     Harris-Foulkes estimate   =     -28.37857401 Ry
     estimated scf accuracy    <       0.00000004 Ry

     iteration #  3     ecut=    50.00 Ry     beta=0.70
     Davidson diagonalization with overlap
     ethr =  2.45E-10,  avg # of iterations =  1.4

     negative rho (up, down):  0.593E-07 0.000E+00

     total cpu time spent up to now is     3085.6 secs

     total energy              =     -28.37857401 Ry
     Harris-Foulkes estimate   =     -28.37857401 Ry
     estimated scf accuracy    <          2.4E-09 Ry

     iteration #  4     ecut=    50.00 Ry     beta=0.70
     Davidson diagonalization with overlap
     ethr =  1.50E-11,  avg # of iterations =  2.0

     negative rho (up, down):  0.337E-07 0.000E+00

     total cpu time spent up to now is     3111.1 secs

     total energy              =     -28.37857401 Ry
     Harris-Foulkes estimate   =     -28.37857401 Ry
     estimated scf accuracy    <          2.0E-09 Ry

     iteration #  5     ecut=    50.00 Ry     beta=0.70
     Davidson diagonalization with overlap
     ethr =  1.25E-11,  avg # of iterations =  1.5

     total cpu time spent up to now is     3133.9 secs

     total energy              =     -28.37857401 Ry
     Harris-Foulkes estimate   =     -28.37857401 Ry
     estimated scf accuracy    <          2.5E-09 Ry

     iteration #  6     ecut=    50.00 Ry     beta=0.70
     Davidson diagonalization with overlap
     ethr =  1.25E-11,  avg # of iterations =  1.0

     total cpu time spent up to now is     3155.8 secs

     total energy              =     -28.37857401 Ry
     Harris-Foulkes estimate   =     -28.37857401 Ry
     estimated scf accuracy    <          1.1E-11 Ry

     iteration #  7     ecut=    50.00 Ry     beta=0.70
     Davidson diagonalization with overlap
     ethr =  1.00E-13,  avg # of iterations =  2.0

     total cpu time spent up to now is     3180.8 secs

     total energy              =     -28.37857401 Ry
     Harris-Foulkes estimate   =     -28.37857401 Ry
     estimated scf accuracy    <          4.1E-13 Ry

     iteration #  8     ecut=    50.00 Ry     beta=0.70
     Davidson diagonalization with overlap
     ethr =  1.00E-13,  avg # of iterations =  1.0

     total cpu time spent up to now is     3202.7 secs

     End of self-consistent calculation

     Number of k-points >= 100: set verbosity='high' to print the bands.

     the Fermi energy is    -2.0991 ev

!    total energy              =     -28.37857401 Ry
     Harris-Foulkes estimate   =     -28.37857401 Ry
     estimated scf accuracy    <          5.7E-15 Ry

     The total energy is the sum of the following terms:

     one-electron contribution =    -195.23752844 Ry
     hartree contribution      =      99.15334513 Ry
     xc contribution           =      -8.17078107 Ry
     ewald contribution        =      75.87630708 Ry
     smearing contrib. (-TS)   =       0.00008330 Ry

     convergence has been achieved in   8 iterations

     Forces acting on atoms (Ry/au):

     atom    1 type  1   force =    -0.00116265   -0.00020059   -0.00029163
     atom    2 type  1   force =    -0.00017927    0.00019918   -0.00027376
     atom    3 type  1   force =     0.00027808   -0.00007720    0.00028954
     atom    4 type  1   force =     0.00106384    0.00007861    0.00027585

     Total force =     0.001733     Total SCF correction =     0.000000

     number of scf cycles    =  13
     number of bfgs steps    =  12

     energy   old            =     -28.3785578866 Ry
     energy   new            =     -28.3785740075 Ry

     CASE: energy  _new < energy  _old

     new trust radius        =       0.0100667748 bohr
     new conv_thr            =            1.6E-13 Ry


ATOMIC_POSITIONS (crystal)
Sn       0.677531905   0.333451688   0.023614895
Sn       0.343684156   0.666558548   0.023609016
Sn       0.671373112   0.333391070   0.139777736
Sn       0.337410827   0.666598694   0.139781183



     Writing output data file SnBLrelax.save
     Check: negative starting charge=   -0.000297
     NEW-OLD atomic charge density approx. for the potential
     Check: negative starting charge=   -0.000298

     negative rho (up, down):  0.108E-04 0.000E+00

     total cpu time spent up to now is     3204.0 secs

     per-process dynamical memory:     5.9 Mb

     Self-consistent Calculation

     iteration #  1     ecut=    50.00 Ry     beta=0.70
     Davidson diagonalization with overlap
     ethr =  1.00E-06,  avg # of iterations =  2.9

     Threshold (ethr) on eigenvalues was too large:
     Diagonalizing with lowered threshold

     Davidson diagonalization with overlap
     ethr =  1.09E-08,  avg # of iterations =  2.4

     negative rho (up, down):  0.282E-05 0.000E+00

     total cpu time spent up to now is     3259.3 secs

     total energy              =     -28.37859421 Ry
     Harris-Foulkes estimate   =     -28.37859452 Ry
     estimated scf accuracy    <       0.00000173 Ry

     iteration #  2     ecut=    50.00 Ry     beta=0.70
     Davidson diagonalization with overlap
     ethr =  1.08E-08,  avg # of iterations =  1.0

     negative rho (up, down):  0.190E-06 0.000E+00

     total cpu time spent up to now is     3281.8 secs

[...]
     atom    3 type  1   force =    -0.00014775   -0.00002204    0.00001852
     atom    4 type  1   force =     0.00009482    0.00002177   -0.00001168

     Total force =     0.000188     Total SCF correction =     0.000000

     number of scf cycles    =  18
     number of bfgs steps    =  17

     energy   old            =     -28.3786250136 Ry
     energy   new            =     -28.3786273691 Ry

     CASE: energy  _new < energy  _old

     new trust radius        =       0.0014875093 bohr
     new conv_thr            =            2.4E-14 Ry


ATOMIC_POSITIONS (crystal)
Sn       0.674120419   0.333333109   0.023584549
Sn       0.340787949   0.666665445   0.023582044
Sn       0.674215927   0.333335901   0.139807195
Sn       0.340875705   0.666665544   0.139809042



     Writing output data file SnBLrelax.save
     Check: negative starting charge=   -0.000299
     NEW-OLD atomic charge density approx. for the potential
     Check: negative starting charge=   -0.000299

     negative rho (up, down):  0.102E-05 0.000E+00

     total cpu time spent up to now is     4345.9 secs

     per-process dynamical memory:     5.9 Mb

     Self-consistent Calculation

     iteration #  1     ecut=    50.00 Ry     beta=0.70
     Davidson diagonalization with overlap
     ethr =  1.00E-06,  avg # of iterations =  1.1

     Threshold (ethr) on eigenvalues was too large:
     Diagonalizing with lowered threshold

     Davidson diagonalization with overlap
     ethr =  2.20E-10,  avg # of iterations =  3.0

     negative rho (up, down):  0.253E-06 0.000E+00

     total cpu time spent up to now is     4398.4 secs

     total energy              =     -28.37862750 Ry
     Harris-Foulkes estimate   =     -28.37862751 Ry
     estimated scf accuracy    <       0.00000003 Ry

     iteration #  2     ecut=    50.00 Ry     beta=0.70
     Davidson diagonalization with overlap
     ethr =  1.66E-10,  avg # of iterations =  1.0

     negative rho (up, down):  0.137E-07 0.000E+00

     total cpu time spent up to now is     4420.3 secs

     total energy              =     -28.37862750 Ry
     Harris-Foulkes estimate   =     -28.37862750 Ry
     estimated scf accuracy    <          1.4E-09 Ry

     iteration #  3     ecut=    50.00 Ry     beta=0.70
     Davidson diagonalization with overlap
     ethr =  9.01E-12,  avg # of iterations =  1.0

     total cpu time spent up to now is     4442.2 secs

     total energy              =     -28.37862750 Ry
     Harris-Foulkes estimate   =     -28.37862750 Ry
     estimated scf accuracy    <          9.5E-11 Ry

     iteration #  4     ecut=    50.00 Ry     beta=0.70
     Davidson diagonalization with overlap
     ethr =  5.92E-13,  avg # of iterations =  2.0

     total cpu time spent up to now is     4467.9 secs

     total energy              =     -28.37862750 Ry
     Harris-Foulkes estimate   =     -28.37862750 Ry
     estimated scf accuracy    <          3.9E-10 Ry

     iteration #  5     ecut=    50.00 Ry     beta=0.70
     Davidson diagonalization with overlap
     ethr =  5.92E-13,  avg # of iterations =  1.6

     total cpu time spent up to now is     4490.8 secs

     total energy              =     -28.37862750 Ry
     Harris-Foulkes estimate   =     -28.37862750 Ry
     estimated scf accuracy    <          4.8E-11 Ry

     iteration #  6     ecut=    50.00 Ry     beta=0.70
     Davidson diagonalization with overlap
     ethr =  2.98E-13,  avg # of iterations =  1.0

     total cpu time spent up to now is     4512.7 secs

     total energy              =     -28.37862750 Ry
     Harris-Foulkes estimate   =     -28.37862750 Ry
     estimated scf accuracy    <          1.3E-12 Ry

     iteration #  7     ecut=    50.00 Ry     beta=0.70
     Davidson diagonalization with overlap
     ethr =  1.00E-13,  avg # of iterations =  1.0

     total cpu time spent up to now is     4534.6 secs

     total energy              =     -28.37862750 Ry
     Harris-Foulkes estimate   =     -28.37862750 Ry
     estimated scf accuracy    <          2.4E-14 Ry

     iteration #  8     ecut=    50.00 Ry     beta=0.70
     Davidson diagonalization with overlap
     ethr =  1.00E-13,  avg # of iterations =  1.0

     total cpu time spent up to now is     4556.4 secs

     End of self-consistent calculation

     Number of k-points >= 100: set verbosity='high' to print the bands.

     the Fermi energy is    -2.0980 ev

!    total energy              =     -28.37862750 Ry
     Harris-Foulkes estimate   =     -28.37862750 Ry
     estimated scf accuracy    <          2.1E-15 Ry

     The total energy is the sum of the following terms:

     one-electron contribution =    -195.18769755 Ry
     hartree contribution      =      99.12871963 Ry
     xc contribution           =      -8.17020724 Ry
     ewald contribution        =      75.85047873 Ry
     smearing contrib. (-TS)   =       0.00007893 Ry

     convergence has been achieved in   8 iterations

     Forces acting on atoms (Ry/au):

     atom    1 type  1   force =     0.00000977   -0.00000070   -0.00000866
     atom    2 type  1   force =     0.00000526    0.00000091    0.00001044
     atom    3 type  1   force =    -0.00001416   -0.00000414    0.00000838
     atom    4 type  1   force =    -0.00000087    0.00000394   -0.00001016

     Total force =     0.000027     Total SCF correction =     0.000000

     number of scf cycles    =  19
     number of bfgs steps    =  18

     energy   old            =     -28.3786273691 Ry
     energy   new            =     -28.3786275012 Ry

     CASE: energy  _new < energy  _old

     new trust radius        =       0.0004386077 bohr
     new conv_thr            =            1.0E-14 Ry


ATOMIC_POSITIONS (crystal)
Sn       0.674164151   0.333332578   0.023584351
Sn       0.340831283   0.666666167   0.023582418
Sn       0.674168205   0.333334708   0.139807397
Sn       0.340836361   0.666666546   0.139808664



     Writing output data file SnBLrelax.save
     Check: negative starting charge=   -0.000299
     NEW-OLD atomic charge density approx. for the potential
     Check: negative starting charge=   -0.000299

     negative rho (up, down):  0.317E-06 0.000E+00

     total cpu time spent up to now is     4557.7 secs

     per-process dynamical memory:     5.9 Mb

     Self-consistent Calculation

     iteration #  1     ecut=    50.00 Ry     beta=0.70
     Davidson diagonalization with overlap
     ethr =  1.00E-06,  avg # of iterations =  1.0

     Threshold (ethr) on eigenvalues was too large:
     Diagonalizing with lowered threshold

     Davidson diagonalization with overlap
     ethr =  2.83E-11,  avg # of iterations =  3.0

     negative rho (up, down):  0.720E-07 0.000E+00

     total cpu time spent up to now is     4609.8 secs

     total energy              =     -28.37862751 Ry
     Harris-Foulkes estimate   =     -28.37862751 Ry
     estimated scf accuracy    <          3.5E-09 Ry

     iteration #  2     ecut=    50.00 Ry     beta=0.70
     Davidson diagonalization with overlap
     ethr =  2.19E-11,  avg # of iterations =  1.0

     total cpu time spent up to now is     4631.7 secs

     total energy              =     -28.37862751 Ry
     Harris-Foulkes estimate   =     -28.37862751 Ry
     estimated scf accuracy    <          1.9E-10 Ry

     iteration #  3     ecut=    50.00 Ry     beta=0.70
     Davidson diagonalization with overlap
     ethr =  1.17E-12,  avg # of iterations =  1.1

     total cpu time spent up to now is     4653.7 secs

     total energy              =     -28.37862751 Ry
     Harris-Foulkes estimate   =     -28.37862751 Ry
     estimated scf accuracy    <          2.3E-12 Ry

     iteration #  4     ecut=    50.00 Ry     beta=0.70
     Davidson diagonalization with overlap
     ethr =  1.00E-13,  avg # of iterations =  1.7

     total cpu time spent up to now is     4676.9 secs

     total energy              =     -28.37862751 Ry
     Harris-Foulkes estimate   =     -28.37862751 Ry
     estimated scf accuracy    <          2.9E-12 Ry

     iteration #  5     ecut=    50.00 Ry     beta=0.70
     Davidson diagonalization with overlap
     ethr =  1.00E-13,  avg # of iterations =  1.0

     total cpu time spent up to now is     4698.7 secs

     total energy              =     -28.37862751 Ry
     Harris-Foulkes estimate   =     -28.37862751 Ry
     estimated scf accuracy    <          6.9E-12 Ry

     iteration #  6     ecut=    50.00 Ry     beta=0.70
     Davidson diagonalization with overlap
     ethr =  1.00E-13,  avg # of iterations =  1.0

     total cpu time spent up to now is     4720.6 secs

     total energy              =     -28.37862751 Ry
     Harris-Foulkes estimate   =     -28.37862751 Ry
     estimated scf accuracy    <          5.6E-14 Ry

     iteration #  7     ecut=    50.00 Ry     beta=0.70
     Davidson diagonalization with overlap
     ethr =  1.00E-13,  avg # of iterations =  1.0

     total cpu time spent up to now is     4742.4 secs

     End of self-consistent calculation

     Number of k-points >= 100: set verbosity='high' to print the bands.

     the Fermi energy is    -2.0980 ev

!    total energy              =     -28.37862751 Ry
     Harris-Foulkes estimate   =     -28.37862751 Ry
     estimated scf accuracy    <          7.4E-16 Ry

     The total energy is the sum of the following terms:

     one-electron contribution =    -195.18783242 Ry
     hartree contribution      =      99.12878652 Ry
     xc contribution           =      -8.17020901 Ry
     ewald contribution        =      75.85054846 Ry
     smearing contrib. (-TS)   =       0.00007894 Ry

     convergence has been achieved in   7 iterations

     Forces acting on atoms (Ry/au):

     atom    1 type  1   force =     0.00000054    0.00000050   -0.00000696
     atom    2 type  1   force =     0.00000011   -0.00000032    0.00000717
     atom    3 type  1   force =     0.00000253   -0.00000178    0.00000668
     atom    4 type  1   force =    -0.00000318    0.00000160   -0.00000689

     Total force =     0.000015     Total SCF correction =     0.000000

     number of scf cycles    =  20
     number of bfgs steps    =  19

     energy   old            =     -28.3786275012 Ry
     energy   new            =     -28.3786275082 Ry

     CASE: energy  _new < energy  _old

     small trust_radius: resetting bfgs history

     new trust radius        =       0.0000077534 bohr
     new conv_thr            =            1.0E-14 Ry


ATOMIC_POSITIONS (crystal)
Sn       0.674164241   0.333332641   0.023584201
Sn       0.340831274   0.666666127   0.023582572
Sn       0.674168366   0.333334487   0.139807540
Sn       0.340836119   0.666666745   0.139808516



     Writing output data file SnBLrelax.save
     Check: negative starting charge=   -0.000299
     NEW-OLD atomic charge density approx. for the potential
     Check: negative starting charge=   -0.000299

     total cpu time spent up to now is     4743.7 secs

     per-process dynamical memory:     5.9 Mb

     Self-consistent Calculation

     iteration #  1     ecut=    50.00 Ry     beta=0.70
     Davidson diagonalization with overlap
     ethr =  1.00E-06,  avg # of iterations =  1.0

     Threshold (ethr) on eigenvalues was too large:
     Diagonalizing with lowered threshold

     Davidson diagonalization with overlap
     ethr =  8.87E-15,  avg # of iterations =  3.2

     total cpu time spent up to now is     4796.3 secs

     total energy              =     -28.37862751 Ry
     Harris-Foulkes estimate   =     -28.37862751 Ry
     estimated scf accuracy    <          5.5E-13 Ry

     iteration #  2     ecut=    50.00 Ry     beta=0.70
     Davidson diagonalization with overlap
     ethr =  1.00E-13,  avg # of iterations =  1.0

     total cpu time spent up to now is     4818.2 secs

     total energy              =     -28.37862751 Ry
     Harris-Foulkes estimate   =     -28.37862751 Ry
     estimated scf accuracy    <          2.0E-13 Ry

     iteration #  3     ecut=    50.00 Ry     beta=0.70
     Davidson diagonalization with overlap
     ethr =  1.00E-13,  avg # of iterations =  1.0

     total cpu time spent up to now is     4840.2 secs

     total energy              =     -28.37862751 Ry
     Harris-Foulkes estimate   =     -28.37862751 Ry
     estimated scf accuracy    <          2.8E-12 Ry

     iteration #  4     ecut=    50.00 Ry     beta=0.70
     Davidson diagonalization with overlap
     ethr =  1.00E-13,  avg # of iterations =  1.0

     total cpu time spent up to now is     4862.0 secs

     End of self-consistent calculation

     Number of k-points >= 100: set verbosity='high' to print the bands.

     the Fermi energy is    -2.0980 ev

!    total energy              =     -28.37862751 Ry
     Harris-Foulkes estimate   =     -28.37862751 Ry
     estimated scf accuracy    <          6.4E-15 Ry

     The total energy is the sum of the following terms:

     one-electron contribution =    -195.18783537 Ry
     hartree contribution      =      99.12878772 Ry
     xc contribution           =      -8.17020904 Ry
     ewald contribution        =      75.85055024 Ry
     smearing contrib. (-TS)   =       0.00007894 Ry

     convergence has been achieved in   4 iterations

     Forces acting on atoms (Ry/au):

     atom    1 type  1   force =     0.00000054    0.00000035   -0.00000569
     atom    2 type  1   force =     0.00000010   -0.00000017    0.00000584
     atom    3 type  1   force =     0.00000175   -0.00000130    0.00000541
     atom    4 type  1   force =    -0.00000239    0.00000113   -0.00000557

     Total force =     0.000012     Total SCF correction =     0.000000

     number of scf cycles    =  21
     number of bfgs steps    =  20

     energy   old            =     -28.3786275082 Ry
     energy   new            =     -28.3786275084 Ry

     CASE: energy  _new < energy  _old


     WARNING: bfgs curvature condition failed, Theta= 0.995
     Message from routine bfgs:
     history already reset at previous step: stopping
     small trust_radius: resetting bfgs history

     new trust radius        =       0.0000061611 bohr
     new conv_thr            =            1.0E-14 Ry


ATOMIC_POSITIONS (crystal)
Sn       0.674164320   0.333332684   0.023584079
Sn       0.340831275   0.666666106   0.023582698
Sn       0.674168473   0.333334325   0.139807657
Sn       0.340835932   0.666666885   0.139808396



     Writing output data file SnBLrelax.save
     Check: negative starting charge=   -0.000299
     NEW-OLD atomic charge density approx. for the potential
     Check: negative starting charge=   -0.000299

     total cpu time spent up to now is     4863.3 secs

     per-process dynamical memory:     5.9 Mb

     Self-consistent Calculation

     iteration #  1     ecut=    50.00 Ry     beta=0.70
     Davidson diagonalization with overlap
     ethr =  1.00E-06,  avg # of iterations =  1.0

     Threshold (ethr) on eigenvalues was too large:
     Diagonalizing with lowered threshold

     Davidson diagonalization with overlap
     ethr =  6.30E-15,  avg # of iterations =  3.2

     total cpu time spent up to now is     4915.7 secs

     total energy              =     -28.37862751 Ry
     Harris-Foulkes estimate   =     -28.37862751 Ry
     estimated scf accuracy    <          4.6E-13 Ry

     iteration #  2     ecut=    50.00 Ry     beta=0.70
     Davidson diagonalization with overlap
     ethr =  1.00E-13,  avg # of iterations =  1.0

     total cpu time spent up to now is     4937.6 secs

     total energy              =     -28.37862751 Ry
     Harris-Foulkes estimate   =     -28.37862751 Ry
     estimated scf accuracy    <          3.0E-12 Ry

     iteration #  3     ecut=    50.00 Ry     beta=0.70
     Davidson diagonalization with overlap
     ethr =  1.00E-13,  avg # of iterations =  1.0

     total cpu time spent up to now is     4959.5 secs

     total energy              =     -28.37862751 Ry
     Harris-Foulkes estimate   =     -28.37862751 Ry
     estimated scf accuracy    <          4.6E-13 Ry

     iteration #  4     ecut=    50.00 Ry     beta=0.70
     Davidson diagonalization with overlap
     ethr =  1.00E-13,  avg # of iterations =  1.0

     total cpu time spent up to now is     4981.3 secs

     total energy              =     -28.37862751 Ry
     Harris-Foulkes estimate   =     -28.37862751 Ry
     estimated scf accuracy    <          4.8E-14 Ry

     iteration #  5     ecut=    50.00 Ry     beta=0.70
     Davidson diagonalization with overlap
     ethr =  1.00E-13,  avg # of iterations =  1.0

     total cpu time spent up to now is     5003.2 secs

     End of self-consistent calculation

     Number of k-points >= 100: set verbosity='high' to print the bands.

     the Fermi energy is    -2.0980 ev

!    total energy              =     -28.37862751 Ry
     Harris-Foulkes estimate   =     -28.37862751 Ry
     estimated scf accuracy    <          3.1E-16 Ry

     The total energy is the sum of the following terms:

     one-electron contribution =    -195.18783838 Ry
     hartree contribution      =      99.12878946 Ry
     xc contribution           =      -8.17020909 Ry
     ewald contribution        =      75.85055155 Ry
     smearing contrib. (-TS)   =       0.00007894 Ry

     convergence has been achieved in   5 iterations

     Forces acting on atoms (Ry/au):

     atom    1 type  1   force =     0.00000051    0.00000025   -0.00000465
     atom    2 type  1   force =     0.00000012   -0.00000008    0.00000479
     atom    3 type  1   force =     0.00000118   -0.00000096    0.00000438
     atom    4 type  1   force =    -0.00000181    0.00000079   -0.00000452

     Total force =     0.000010     Total SCF correction =     0.000000

     The maximum number of steps has been reached.

     End of BFGS Geometry Optimization
Begin final coordinates

ATOMIC_POSITIONS (crystal)
Sn       0.674164320   0.333332684   0.023584079
Sn       0.340831275   0.666666106   0.023582698
Sn       0.674168473   0.333334325   0.139807657
Sn       0.340835932   0.666666885   0.139808396
End final coordinates



     Writing output data file SnBLrelax.save
 
     init_run     :      8.48s CPU      9.31s WALL (       1 calls)
     electrons    :   4786.68s CPU   4965.93s WALL (      22 calls)
     update_pot   :      1.20s CPU      1.32s WALL (      21 calls)
     forces       :      9.27s CPU      9.86s WALL (      22 calls)

     Called by init_run:
     wfcinit      :      8.34s CPU      9.10s WALL (       1 calls)
     potinit      :      0.02s CPU      0.04s WALL (       1 calls)

     Called by electrons:
     c_bands      :   4078.64s CPU   4247.28s WALL (     195 calls)
     sum_band     :    703.47s CPU    712.97s WALL (     195 calls)
     v_of_rho     :      0.42s CPU      0.44s WALL (     198 calls)
     mix_rho      :      0.32s CPU      0.43s WALL (     195 calls)

     Called by c_bands:
     init_us_2    :     19.41s CPU     32.55s WALL (  186676 calls)
     cegterg      :   4054.95s CPU   4071.91s WALL (   88140 calls)

     Called by *egterg:
     h_psi        :   3158.24s CPU   3142.10s WALL (  275373 calls)
     g_psi        :      5.91s CPU     25.94s WALL (  186781 calls)
     cdiaghg      :    471.24s CPU    485.77s WALL (  256841 calls)

     Called by h_psi:
     add_vuspsi   :      2.36s CPU     31.60s WALL (  275373 calls)

     General routines
     calbec       :    152.80s CPU     59.65s WALL (  285317 calls)
     fft          :      0.65s CPU      0.76s WALL (     873 calls)
     fftw         :   3502.95s CPU   3445.97s WALL ( 7832168 calls)
     davcio       :      2.25s CPU    144.89s WALL (  274816 calls)
 
     Parallel routines
     fft_scatter  :   1672.93s CPU    786.51s WALL ( 7833041 calls)
 
     PWSCF        :     1h20m CPU        1h23m WALL

 
   This run was terminated on:   2:33:15  29Aug2015            

=------------------------------------------------------------------------------=
   JOB DONE.
=------------------------------------------------------------------------------=
