
     Program PWSCF v.5.0.2 (svn rev. 9656) starts on  3Sep2015 at 10:55:42 

     This program is part of the open-source Quantum ESPRESSO suite
     for quantum simulation of materials; please cite
         "P. Giannozzi et al., J. Phys.:Condens. Matter 21 395502 (2009);
          URL http://www.quantum-espresso.org", 
     in publications or presentations arising from this work. More details at
     http://www.quantum-espresso.org/quote.php

     Parallel version (MPI), running on    20 processors
     R & G space division:  proc/nbgrp/npool/nimage =      20

     Current dimensions of program PWSCF are:
     Max number of different atomic species (ntypx) = 10
     Max number of k-points (npk) =  40000
     Max angular momentum in pseudopotentials (lmaxx) =  3
     Waiting for input...
     Reading input from standard input

     Subspace diagonalization in iterative solution of the eigenvalue problem:
     scalapack distributed-memory algorithm (size of sub-group:  3*  3 procs)

 
     Parallelization info
     --------------------
     sticks:   dense  smooth     PW     G-vecs:    dense   smooth      PW
     Min          59      59     16                16635    16635    2485
     Max          60      60     19                16666    16666    2514
     Sum        1189    1189    349               332939   332939   49999
 


     bravais-lattice index     =            4
     lattice parameter (alat)  =       9.3028  a.u.
     unit-cell volume          =    6972.2714 (a.u.)^3
     number of atoms/cell      =            4
     number of atomic types    =            1
     number of electrons       =        16.00
     number of Kohn-Sham states=           16
     kinetic-energy cutoff     =      50.0000  Ry
     charge density cutoff     =     200.0000  Ry
     convergence threshold     =      1.0E-10
     mixing beta               =       0.7000
     number of iterations used =            8  plain     mixing
     Exchange-correlation      = SLA-PW-PBX-PBC ( 1 4 3 4 0)
     EXX-fraction              =        0.00
     nstep                     =           50


     celldm(1)=   9.302819  celldm(2)=   0.000000  celldm(3)=  10.000000
     celldm(4)=   0.000000  celldm(5)=   0.000000  celldm(6)=   0.000000

     crystal axes: (cart. coord. in units of alat)
               a(1) = (   1.000000   0.000000   0.000000 )  
               a(2) = (  -0.500000   0.866025   0.000000 )  
               a(3) = (   0.000000   0.000000  10.000000 )  

     reciprocal axes: (cart. coord. in units 2 pi/alat)
               b(1) = (  1.000000  0.577350  0.000000 )  
               b(2) = (  0.000000  1.154701  0.000000 )  
               b(3) = (  0.000000  0.000000  0.100000 )  


     PseudoPot. # 1 for Sn read from file:
     /user/antwerpen/201/vsc20155/DFT/QEspresso/pseudopotentials/Sn.pbe-hgh.UPF
     MD5 check sum: e05f07009c07576dd7a76bada7d4a999
     Pseudo is Norm-conserving, Zval =  4.0
     Generated in analytical, separable form
     Using radial grid of 1243 points,  6 beta functions with: 
                l(1) =   0
                l(2) =   0
                l(3) =   0
                l(4) =   1
                l(5) =   1
                l(6) =   2

     atomic species   valence    mass     pseudopotential
        Sn             4.00   118.71000     Sn( 1.00)

     12 Sym. Ops. (no inversion) found
          (note: 12 additional sym.ops. were found but ignored
           their fractional translations are incommensurate with FFT grid)


   Cartesian axes

     site n.     atom                  positions (alat units)
         1           Sn  tau(   1) = (   0.5000000   0.2886751   0.1096284  )
         2           Sn  tau(   2) = (   0.0000000   0.5773503   0.1096284  )
         3           Sn  tau(   3) = (   0.5000000   0.2886751   0.7073396  )
         4           Sn  tau(   4) = (   0.0000000   0.5773503   0.7073396  )

     number of k points=    91  Methfessel-Paxton smearing, width (Ry)=  0.0200
                       cart. coord. in units 2pi/alat
        k(    1) = (   0.0000000   0.0000000   0.0000000), wk =   0.0022222
        k(    2) = (   0.0000000   0.0384900   0.0000000), wk =   0.0133333
        k(    3) = (   0.0000000   0.0769800   0.0000000), wk =   0.0133333
        k(    4) = (   0.0000000   0.1154701   0.0000000), wk =   0.0133333
        k(    5) = (   0.0000000   0.1539601   0.0000000), wk =   0.0133333
        k(    6) = (   0.0000000   0.1924501   0.0000000), wk =   0.0133333
        k(    7) = (   0.0000000   0.2309401   0.0000000), wk =   0.0133333
        k(    8) = (   0.0000000   0.2694301   0.0000000), wk =   0.0133333
        k(    9) = (   0.0000000   0.3079201   0.0000000), wk =   0.0133333
        k(   10) = (   0.0000000   0.3464102   0.0000000), wk =   0.0133333
        k(   11) = (   0.0000000   0.3849002   0.0000000), wk =   0.0133333
        k(   12) = (   0.0000000   0.4233902   0.0000000), wk =   0.0133333
        k(   13) = (   0.0000000   0.4618802   0.0000000), wk =   0.0133333
        k(   14) = (   0.0000000   0.5003702   0.0000000), wk =   0.0133333
        k(   15) = (   0.0000000   0.5388603   0.0000000), wk =   0.0133333
        k(   16) = (   0.0000000  -0.5773503   0.0000000), wk =   0.0066667
        k(   17) = (   0.0333333   0.0577350   0.0000000), wk =   0.0133333
        k(   18) = (   0.0333333   0.0962250   0.0000000), wk =   0.0266667
        k(   19) = (   0.0333333   0.1347151   0.0000000), wk =   0.0266667
        k(   20) = (   0.0333333   0.1732051   0.0000000), wk =   0.0266667
        k(   21) = (   0.0333333   0.2116951   0.0000000), wk =   0.0266667
        k(   22) = (   0.0333333   0.2501851   0.0000000), wk =   0.0266667
        k(   23) = (   0.0333333   0.2886751   0.0000000), wk =   0.0266667
        k(   24) = (   0.0333333   0.3271652   0.0000000), wk =   0.0266667
        k(   25) = (   0.0333333   0.3656552   0.0000000), wk =   0.0266667
        k(   26) = (   0.0333333   0.4041452   0.0000000), wk =   0.0266667
        k(   27) = (   0.0333333   0.4426352   0.0000000), wk =   0.0266667
        k(   28) = (   0.0333333   0.4811252   0.0000000), wk =   0.0266667
        k(   29) = (   0.0333333   0.5196152   0.0000000), wk =   0.0266667
        k(   30) = (   0.0333333   0.5581053   0.0000000), wk =   0.0266667
        k(   31) = (   0.0666667   0.1154701   0.0000000), wk =   0.0133333
        k(   32) = (   0.0666667   0.1539601   0.0000000), wk =   0.0266667
        k(   33) = (   0.0666667   0.1924501   0.0000000), wk =   0.0266667
        k(   34) = (   0.0666667   0.2309401   0.0000000), wk =   0.0266667
        k(   35) = (   0.0666667   0.2694301   0.0000000), wk =   0.0266667
        k(   36) = (   0.0666667   0.3079201   0.0000000), wk =   0.0266667
        k(   37) = (   0.0666667   0.3464102   0.0000000), wk =   0.0266667
        k(   38) = (   0.0666667   0.3849002   0.0000000), wk =   0.0266667
        k(   39) = (   0.0666667   0.4233902   0.0000000), wk =   0.0266667
        k(   40) = (   0.0666667   0.4618802   0.0000000), wk =   0.0266667
        k(   41) = (   0.0666667   0.5003702   0.0000000), wk =   0.0266667
        k(   42) = (   0.0666667   0.5388603   0.0000000), wk =   0.0266667
        k(   43) = (   0.0666667   0.5773503   0.0000000), wk =   0.0133333
        k(   44) = (   0.1000000   0.1732051   0.0000000), wk =   0.0133333
        k(   45) = (   0.1000000   0.2116951   0.0000000), wk =   0.0266667
        k(   46) = (   0.1000000   0.2501851   0.0000000), wk =   0.0266667
        k(   47) = (   0.1000000   0.2886751   0.0000000), wk =   0.0266667
        k(   48) = (   0.1000000   0.3271652   0.0000000), wk =   0.0266667
        k(   49) = (   0.1000000   0.3656552   0.0000000), wk =   0.0266667
        k(   50) = (   0.1000000   0.4041452   0.0000000), wk =   0.0266667
        k(   51) = (   0.1000000   0.4426352   0.0000000), wk =   0.0266667
        k(   52) = (   0.1000000   0.4811252   0.0000000), wk =   0.0266667
        k(   53) = (   0.1000000   0.5196152   0.0000000), wk =   0.0266667
        k(   54) = (   0.1000000   0.5581053   0.0000000), wk =   0.0266667
        k(   55) = (   0.1333333   0.2309401   0.0000000), wk =   0.0133333
        k(   56) = (   0.1333333   0.2694301   0.0000000), wk =   0.0266667
        k(   57) = (   0.1333333   0.3079201   0.0000000), wk =   0.0266667
        k(   58) = (   0.1333333   0.3464102   0.0000000), wk =   0.0266667
        k(   59) = (   0.1333333   0.3849002   0.0000000), wk =   0.0266667
        k(   60) = (   0.1333333   0.4233902   0.0000000), wk =   0.0266667
        k(   61) = (   0.1333333   0.4618802   0.0000000), wk =   0.0266667
        k(   62) = (   0.1333333   0.5003702   0.0000000), wk =   0.0266667
        k(   63) = (   0.1333333   0.5388603   0.0000000), wk =   0.0266667
        k(   64) = (   0.1333333   0.5773503   0.0000000), wk =   0.0133333
        k(   65) = (   0.1666667   0.2886751   0.0000000), wk =   0.0133333
        k(   66) = (   0.1666667   0.3271652   0.0000000), wk =   0.0266667
        k(   67) = (   0.1666667   0.3656552   0.0000000), wk =   0.0266667
        k(   68) = (   0.1666667   0.4041452   0.0000000), wk =   0.0266667
        k(   69) = (   0.1666667   0.4426352   0.0000000), wk =   0.0266667
        k(   70) = (   0.1666667   0.4811252   0.0000000), wk =   0.0266667
        k(   71) = (   0.1666667   0.5196152   0.0000000), wk =   0.0266667
        k(   72) = (   0.1666667   0.5581053   0.0000000), wk =   0.0266667
        k(   73) = (   0.2000000   0.3464102   0.0000000), wk =   0.0133333
        k(   74) = (   0.2000000   0.3849002   0.0000000), wk =   0.0266667
        k(   75) = (   0.2000000   0.4233902   0.0000000), wk =   0.0266667
        k(   76) = (   0.2000000   0.4618802   0.0000000), wk =   0.0266667
        k(   77) = (   0.2000000   0.5003702   0.0000000), wk =   0.0266667
        k(   78) = (   0.2000000   0.5388603   0.0000000), wk =   0.0266667
        k(   79) = (   0.2000000   0.5773503   0.0000000), wk =   0.0133333
        k(   80) = (   0.2333333   0.4041452   0.0000000), wk =   0.0133333
        k(   81) = (   0.2333333   0.4426352   0.0000000), wk =   0.0266667
        k(   82) = (   0.2333333   0.4811252   0.0000000), wk =   0.0266667
        k(   83) = (   0.2333333   0.5196152   0.0000000), wk =   0.0266667
        k(   84) = (   0.2333333   0.5581053   0.0000000), wk =   0.0266667
        k(   85) = (   0.2666667   0.4618802   0.0000000), wk =   0.0133333
        k(   86) = (   0.2666667   0.5003702   0.0000000), wk =   0.0266667
        k(   87) = (   0.2666667   0.5388603   0.0000000), wk =   0.0266667
        k(   88) = (   0.2666667   0.5773503   0.0000000), wk =   0.0133333
        k(   89) = (   0.3000000   0.5196152   0.0000000), wk =   0.0133333
        k(   90) = (   0.3000000   0.5581053   0.0000000), wk =   0.0266667
        k(   91) = (   0.3333333   0.5773503   0.0000000), wk =   0.0044444

     Dense  grid:   332939 G-vectors     FFT dimensions: (  45,  45, 432)

     Largest allocated arrays     est. size (Mb)     dimensions
        Kohn-Sham Wavefunctions         0.53 Mb     (   2179,   16)
        NL pseudopotentials             1.86 Mb     (   2179,   56)
        Each V/rho on FFT grid          0.68 Mb     (  44550)
        Each G-vector array             0.13 Mb     (  16666)
        G-vector shells                 0.13 Mb     (  16666)
     Largest temporary arrays     est. size (Mb)     dimensions
        Auxiliary wavefunctions         2.13 Mb     (   2179,   64)
        Each subspace H/S matrix        0.01 Mb     (  21,  21)
        Each <psi_i|beta_j> matrix      0.01 Mb     (     56,   16)
        Arrays for rho mixing           5.44 Mb     (  44550,   8)

     Initial potential from superposition of free atoms

     starting charge   11.99988, renormalised to   16.00000

     negative rho (up, down):  0.101E-04 0.000E+00
     Starting wfc are   36 randomized atomic wfcs

     total cpu time spent up to now is       10.4 secs

     per-process dynamical memory:    16.9 Mb

     Self-consistent Calculation

     iteration #  1     ecut=    50.00 Ry     beta=0.70
     Davidson diagonalization with overlap
     ethr =  1.00E-02,  avg # of iterations =  4.1

     Threshold (ethr) on eigenvalues was too large:
     Diagonalizing with lowered threshold

     Davidson diagonalization with overlap
     ethr =  9.22E-04,  avg # of iterations =  2.5

     total cpu time spent up to now is       34.3 secs

     total energy              =     -27.89642482 Ry
     Harris-Foulkes estimate   =     -27.94415139 Ry
     estimated scf accuracy    <       0.15413595 Ry

     iteration #  2     ecut=    50.00 Ry     beta=0.70
     Davidson diagonalization with overlap
     ethr =  9.63E-04,  avg # of iterations =  1.4

     total cpu time spent up to now is       46.2 secs

     total energy              =     -27.90035489 Ry
     Harris-Foulkes estimate   =     -27.90809589 Ry
     estimated scf accuracy    <       0.01584024 Ry

     iteration #  3     ecut=    50.00 Ry     beta=0.70
     Davidson diagonalization with overlap
     c_bands:  1 eigenvalues not converged
     c_bands:  1 eigenvalues not converged
     c_bands:  1 eigenvalues not converged
     c_bands:  1 eigenvalues not converged
     c_bands:  1 eigenvalues not converged
     c_bands:  1 eigenvalues not converged
     c_bands:  2 eigenvalues not converged
     c_bands:  1 eigenvalues not converged
     c_bands:  1 eigenvalues not converged
     c_bands:  1 eigenvalues not converged
     c_bands:  2 eigenvalues not converged
     c_bands:  1 eigenvalues not converged
     c_bands:  1 eigenvalues not converged
     c_bands:  1 eigenvalues not converged
     c_bands:  1 eigenvalues not converged
     c_bands:  1 eigenvalues not converged
     c_bands:  1 eigenvalues not converged
     c_bands:  1 eigenvalues not converged
     ethr =  9.90E-05,  avg # of iterations = 10.9

     total cpu time spent up to now is       65.3 secs

     total energy              =     -27.90133313 Ry
     Harris-Foulkes estimate   =     -27.91011290 Ry
     estimated scf accuracy    <       0.01971046 Ry

     iteration #  4     ecut=    50.00 Ry     beta=0.70
     Davidson diagonalization with overlap
     c_bands:  1 eigenvalues not converged
     ethr =  9.90E-05,  avg # of iterations =  2.8

     total cpu time spent up to now is       77.0 secs

     total energy              =     -27.90532786 Ry
     Harris-Foulkes estimate   =     -27.90542827 Ry
     estimated scf accuracy    <       0.00025644 Ry

     iteration #  5     ecut=    50.00 Ry     beta=0.70
     Davidson diagonalization with overlap
     c_bands:  1 eigenvalues not converged
     c_bands:  1 eigenvalues not converged
     c_bands:  1 eigenvalues not converged
     c_bands:  1 eigenvalues not converged
     c_bands:  1 eigenvalues not converged
     c_bands:  1 eigenvalues not converged
     c_bands:  1 eigenvalues not converged
     c_bands:  1 eigenvalues not converged
     c_bands:  1 eigenvalues not converged
     c_bands:  1 eigenvalues not converged
     c_bands:  2 eigenvalues not converged
     c_bands:  2 eigenvalues not converged
     c_bands:  1 eigenvalues not converged
     c_bands:  1 eigenvalues not converged
     c_bands:  1 eigenvalues not converged
     c_bands:  1 eigenvalues not converged
     c_bands:  1 eigenvalues not converged
     c_bands:  1 eigenvalues not converged
     c_bands:  1 eigenvalues not converged
     c_bands:  1 eigenvalues not converged
     c_bands:  1 eigenvalues not converged
     c_bands:  1 eigenvalues not converged
     c_bands:  1 eigenvalues not converged
     c_bands:  1 eigenvalues not converged
     c_bands:  2 eigenvalues not converged
     c_bands:  1 eigenvalues not converged
     c_bands:  1 eigenvalues not converged
     c_bands:  1 eigenvalues not converged
     c_bands:  1 eigenvalues not converged
     c_bands:  1 eigenvalues not converged
     c_bands:  1 eigenvalues not converged
     c_bands:  1 eigenvalues not converged
     c_bands:  1 eigenvalues not converged
     ethr =  1.60E-06,  avg # of iterations = 13.6

     total cpu time spent up to now is       99.8 secs

     total energy              =     -27.90532173 Ry
     Harris-Foulkes estimate   =     -27.90545554 Ry
     estimated scf accuracy    <       0.00076435 Ry

     iteration #  6     ecut=    50.00 Ry     beta=0.70
     Davidson diagonalization with overlap
     c_bands:  1 eigenvalues not converged
     c_bands:  1 eigenvalues not converged
     c_bands:  1 eigenvalues not converged
     c_bands:  1 eigenvalues not converged
     c_bands:  1 eigenvalues not converged
     c_bands:  1 eigenvalues not converged
     c_bands:  1 eigenvalues not converged
     c_bands:  1 eigenvalues not converged
     c_bands:  1 eigenvalues not converged
     c_bands:  1 eigenvalues not converged
     ethr =  1.60E-06,  avg # of iterations =  7.3

     total cpu time spent up to now is      114.7 secs

     total energy              =     -27.90538920 Ry
     Harris-Foulkes estimate   =     -27.90539052 Ry
     estimated scf accuracy    <       0.00000558 Ry

     iteration #  7     ecut=    50.00 Ry     beta=0.70
     Davidson diagonalization with overlap
     ethr =  3.49E-08,  avg # of iterations =  1.9

     total cpu time spent up to now is      124.9 secs

     total energy              =     -27.90538984 Ry
     Harris-Foulkes estimate   =     -27.90538989 Ry
     estimated scf accuracy    <       0.00000007 Ry

     iteration #  8     ecut=    50.00 Ry     beta=0.70
     Davidson diagonalization with overlap
     ethr =  4.09E-10,  avg # of iterations =  4.6

     total cpu time spent up to now is      139.1 secs

     total energy              =     -27.90538990 Ry
     Harris-Foulkes estimate   =     -27.90538991 Ry
     estimated scf accuracy    <       0.00000003 Ry

     iteration #  9     ecut=    50.00 Ry     beta=0.70
     Davidson diagonalization with overlap
     ethr =  2.05E-10,  avg # of iterations =  2.8

     total cpu time spent up to now is      150.6 secs

     total energy              =     -27.90538990 Ry
     Harris-Foulkes estimate   =     -27.90538990 Ry
     estimated scf accuracy    <          2.5E-10 Ry

     iteration # 10     ecut=    50.00 Ry     beta=0.70
     Davidson diagonalization with overlap
     ethr =  1.59E-12,  avg # of iterations =  3.0

     total cpu time spent up to now is      162.8 secs

     End of self-consistent calculation

          k = 0.0000 0.0000 0.0000 ( 41777 PWs)   bands (ev):

   -13.0517 -11.2746  -6.4364  -5.7485  -4.5288  -4.5288  -4.1974  -3.1457
    -3.1457  -1.9265  -0.8420  -0.8420  -0.3565   0.6098   0.6878   0.6878

          k = 0.0000 0.0385 0.0000 ( 41757 PWs)   bands (ev):

   -13.0434 -11.2663  -6.5177  -5.7403  -4.5458  -4.4563  -4.3389  -3.1623
    -3.0120  -1.9179  -0.8521  -0.8073  -0.3857   0.6191   0.6794   0.7222

          k = 0.0000 0.0770 0.0000 ( 41755 PWs)   bands (ev):

   -13.0187 -11.2415  -6.7298  -5.7159  -4.6473  -4.5947  -4.2731  -3.2103
    -2.7298  -1.8922  -0.8754  -0.7054  -0.4698   0.6466   0.6616   0.8231

          k = 0.0000 0.1155 0.0000 ( 41702 PWs)   bands (ev):

   -12.9776 -11.2002  -7.0174  -5.6755  -5.0096  -4.6698  -4.0416  -3.2841
    -2.4198  -1.8493  -0.8958  -0.5977  -0.5423   0.6532   0.6917   0.9851

          k = 0.0000 0.1540 0.0000 ( 41718 PWs)   bands (ev):

   -12.9203 -11.1426  -7.3421  -5.6192  -5.3873  -4.7634  -3.8116  -3.3765
    -2.1331  -1.7896  -0.9147  -0.7320  -0.3258   0.6792   0.7540   1.2004

          k = 0.0000 0.1925 0.0000 ( 41724 PWs)   bands (ev):

   -12.8472 -11.0690  -7.6826  -5.7663  -5.5476  -4.8680  -3.6171  -3.4801
    -1.8988  -1.7131  -1.0399  -0.7287  -0.0639   0.7640   0.8329   1.2833

          k = 0.0000 0.2309 0.0000 ( 41676 PWs)   bands (ev):

   -12.7586 -10.9798  -8.0271  -6.1400  -5.4611  -4.9770  -3.5883  -3.4779
    -1.7331  -1.6203  -1.2513  -0.5807   0.2360   0.9212   0.9284   1.3876

          k = 0.0000 0.2694 0.0000 ( 41680 PWs)   bands (ev):

   -12.6552 -10.8756  -8.3685  -6.5039  -5.3606  -5.0847  -3.6956  -3.3982
    -1.6361  -1.5123  -1.4859  -0.3385   0.5673   1.0400   1.1409   1.5124

          k = 0.0000 0.3079 0.0000 ( 41690 PWs)   bands (ev):

   -12.5381 -10.7574  -8.7014  -6.8550  -5.2473  -5.1870  -3.7977  -3.3691
    -1.7281  -1.5945  -1.3898  -0.0196   0.9242   1.1672   1.3744   1.6634

          k = 0.0000 0.3464 0.0000 ( 41670 PWs)   bands (ev):

   -12.4087 -10.6266  -9.0217  -7.1902  -5.2807  -5.1228  -3.8913  -3.3760
    -1.9692  -1.5901  -1.2539   0.3588   1.3010   1.3090   1.5205   1.8295

          k = 0.0000 0.3849 0.0000 ( 41684 PWs)   bands (ev):

   -12.2695 -10.4856  -9.3249  -7.5058  -5.3632  -4.9897  -3.9739  -3.4056
    -2.2015  -1.6064  -1.1065   0.7802   1.4641   1.4797   1.6912   1.9866

          k = 0.0000 0.4234 0.0000 ( 41634 PWs)   bands (ev):

   -12.1246 -10.3384  -9.6056  -7.7969  -5.4328  -4.8518  -4.0437  -3.4485
    -2.4166  -1.6314  -0.9512   1.2292   1.3024   1.6302   2.0859   2.1672

          k = 0.0000 0.4619 0.0000 ( 41562 PWs)   bands (ev):

   -11.9811 -10.1919  -9.8557  -8.0560  -5.4882  -4.7158  -4.0992  -3.4987
    -2.6040  -1.6572  -0.7945   1.0903   1.6869   1.8050   2.3678   2.4235

          k = 0.0000 0.5004 0.0000 ( 41590 PWs)   bands (ev):

   -11.8513 -10.0621 -10.0588  -8.2699  -5.5283  -4.5929  -4.1395  -3.5511
    -2.7511  -1.6785  -0.6486   0.8936   1.9671   2.1334   2.5910   2.6462

          k = 0.0000 0.5389 0.0000 ( 41526 PWs)   bands (ev):

   -11.7556 -10.2039  -9.9601  -8.4172  -5.5527  -4.5018  -4.1640  -3.5954
    -2.8453  -1.6925  -0.5366   0.7481   2.1148   2.4245   2.7642   2.8311

          k = 0.0000-0.5774 0.0000 ( 41556 PWs)   bands (ev):

   -11.7193 -10.2556  -9.9225  -8.4711  -5.5608  -4.4671  -4.1721  -3.6138
    -2.8776  -1.6973  -0.4926   0.6926   2.1833   2.4613   2.8956   2.9986

          k = 0.0333 0.0577 0.0000 ( 41751 PWs)   bands (ev):

   -13.0269 -11.2497  -6.6634  -5.7241  -4.5800  -4.5565  -4.3281  -3.1958
    -2.8102  -1.9008  -0.8704  -0.7376  -0.4422   0.6374   0.6641   0.7919

          k = 0.0333 0.0962 0.0000 ( 41715 PWs)   bands (ev):

   -12.9940 -11.2167  -6.9095  -5.6917  -4.8778  -4.6452  -4.1203  -3.2596
    -2.5241  -1.8665  -0.8959  -0.6108  -0.5393   0.6449   0.6737   0.9289

          k = 0.0333 0.1347 0.0000 ( 41725 PWs)   bands (ev):

   -12.9448 -11.1672  -7.2106  -5.6433  -5.2366  -4.7336  -3.8878  -3.3464
    -2.2303  -1.8152  -0.9123  -0.6987  -0.3972   0.6442   0.7273   1.1251

          k = 0.0333 0.1732 0.0000 ( 41732 PWs)   bands (ev):

   -12.8796 -11.1016  -7.5384  -5.6068  -5.5794  -4.8371  -3.6714  -3.4484
    -1.9687  -1.7470  -0.9653  -0.7929  -0.1507   0.6874   0.7978   1.2455

          k = 0.0333 0.2117 0.0000 ( 41694 PWs)   bands (ev):

   -12.7987 -11.0202  -7.8768  -5.9773  -5.5004  -4.9480  -3.5581  -3.4991
    -1.7648  -1.6623  -1.1496  -0.7131   0.1393   0.7962   0.8849   1.3398

          k = 0.0333 0.2502 0.0000 ( 41679 PWs)   bands (ev):

   -12.7026 -10.9235  -8.2164  -6.3417  -5.4071  -5.0601  -3.6694  -3.3848
    -1.6296  -1.5617  -1.3751  -0.5268   0.4648   0.9773   0.9882   1.4506

          k = 0.0333 0.2887 0.0000 ( 41706 PWs)   bands (ev):

   -12.5923 -10.8121  -8.5509  -6.6960  -5.3010  -5.1676  -3.7772  -3.3273
    -1.6132  -1.5575  -1.4466  -0.2565   0.8192   1.1073   1.2100   1.5866

          k = 0.0333 0.3272 0.0000 ( 41693 PWs)   bands (ev):

   -12.4688 -10.6874  -8.8755  -7.0367  -5.2726  -5.1779  -3.8777  -3.3145
    -1.8540  -1.5330  -1.3173   0.0823   1.1954   1.2428   1.4284   1.7464

          k = 0.0333 0.3657 0.0000 ( 41685 PWs)   bands (ev):

   -12.3341 -10.5511  -9.1858  -7.3604  -5.3616  -5.0503  -3.9680  -3.3322
    -2.0895  -1.5382  -1.1753   0.4725   1.3879   1.5084   1.5929   1.9382

          k = 0.0333 0.4041 0.0000 ( 41657 PWs)   bands (ev):

   -12.1914 -10.4063  -9.4771  -7.6630  -5.4395  -4.9145  -4.0460  -3.3689
    -2.3117  -1.5584  -1.0234   0.8980   1.3950   1.5467   1.9976   2.0786

          k = 0.0333 0.4426 0.0000 ( 41622 PWs)   bands (ev):

   -12.0459 -10.2582  -9.7427  -7.9382  -5.5035  -4.7765  -4.1100  -3.4172
    -2.5111  -1.5834  -0.8663   1.1947   1.3432   1.7126   2.2700   2.3228

          k = 0.0333 0.4811 0.0000 ( 41563 PWs)   bands (ev):

   -11.9069 -10.1161  -9.9725  -8.1762  -5.5525  -4.6451  -4.1590  -3.4719
    -2.6760  -1.6067  -0.7129   0.9869   1.7858   1.8786   2.4832   2.5361

          k = 0.0333 0.5196 0.0000 ( 41555 PWs)   bands (ev):

   -11.7907 -10.1495  -9.9966  -8.3598  -5.5855  -4.5352  -4.1921  -3.5255
    -2.7937  -1.6242  -0.5800   0.8116   2.0201   2.1852   2.6081   2.7138

          k = 0.0333 0.5581 0.0000 ( 41526 PWs)   bands (ev):

   -11.7215 -10.2493  -9.9249  -8.4636  -5.6021  -4.4693  -4.2087  -3.5618
    -2.8547  -1.6335  -0.4974   0.7064   2.1141   2.3939   2.7055   2.9613

          k = 0.0667 0.1155 0.0000 ( 41743 PWs)   bands (ev):

   -12.9530 -11.1754  -7.1639  -5.6514  -5.1820  -4.7284  -3.9098  -3.3408
    -2.2610  -1.8237  -0.9207  -0.6891  -0.4100   0.6241   0.7184   1.1080

          k = 0.0667 0.1540 0.0000 ( 41754 PWs)   bands (ev):

   -12.8958 -11.1180  -7.4606  -5.5954  -5.5194  -4.8339  -3.6850  -3.4440
    -1.9925  -1.7641  -0.9361  -0.8418  -0.1716   0.6241   0.7800   1.2262

          k = 0.0667 0.1925 0.0000 ( 41749 PWs)   bands (ev):

   -12.8228 -11.0445  -7.7788  -5.8696  -5.5242  -4.9515  -3.5595  -3.4810
    -1.7544  -1.6877  -1.0708  -0.8567   0.1177   0.6707   0.8583   1.3095

          k = 0.0667 0.2309 0.0000 ( 41697 PWs)   bands (ev):

   -12.7344 -10.9554  -8.1056  -6.2218  -5.4385  -5.0730  -3.6794  -3.3228
    -1.5965  -1.5697  -1.2849  -0.7418   0.4473   0.7846   0.9528   1.4104

          k = 0.0667 0.2694 0.0000 ( 41702 PWs)   bands (ev):

   -12.6311 -10.8514  -8.4327  -6.5695  -5.3410  -5.1903  -3.7976  -3.2220
    -1.5144  -1.4884  -1.4516  -0.5422   0.8093   0.9705   1.0631   1.5315

          k = 0.0667 0.3079 0.0000 ( 41696 PWs)   bands (ev):

   -12.5141 -10.7333  -8.7544  -6.9080  -5.3156  -5.2159  -3.9094  -3.1757
    -1.7492  -1.3928  -1.3648  -0.2647   1.1802   1.2046   1.2050   1.6739

          k = 0.0667 0.3464 0.0000 ( 41699 PWs)   bands (ev):

   -12.3847 -10.6025  -9.0658  -7.2334  -5.4136  -5.0966  -4.0114  -3.1719
    -1.9813  -1.3748  -1.2293   0.0764   1.3249   1.4106   1.6059   1.8389

          k = 0.0667 0.3849 0.0000 ( 41665 PWs)   bands (ev):

   -12.2454 -10.4613  -9.3622  -7.5417  -5.5033  -4.9643  -4.1010  -3.1977
    -2.2028  -1.3822  -1.0819   0.4640   1.4404   1.4734   2.0084   2.0476

          k = 0.0667 0.4234 0.0000 ( 41630 PWs)   bands (ev):

   -12.1001 -10.3137  -9.6379  -7.8275  -5.5790  -4.8265  -4.1763  -3.2439
    -2.4041  -1.4013  -0.9267   0.8819   1.2893   1.6265   2.1872   2.2392

          k = 0.0667 0.4619 0.0000 ( 41593 PWs)   bands (ev):

   -11.9558 -10.1665  -9.8848  -8.0831  -5.6392  -4.6902  -4.2361  -3.3047
    -2.5737  -1.4233  -0.7697   1.0847   1.3127   1.7733   2.3884   2.4226

          k = 0.0667 0.5004 0.0000 ( 41560 PWs)   bands (ev):

   -11.8247 -10.0898 -10.0321  -8.2954  -5.6828  -4.5667  -4.2794  -3.3734
    -2.7000  -1.4423  -0.6233   0.8907   1.7290   1.8942   2.4664   2.6102

          k = 0.0667 0.5389 0.0000 ( 41527 PWs)   bands (ev):

   -11.7275 -10.2315  -9.9319  -8.4426  -5.7092  -4.4751  -4.3057  -3.4334
    -2.7762  -1.4549  -0.5104   0.7460   1.9655   2.0697   2.5545   2.8498

          k = 0.0667 0.5774 0.0000 ( 41518 PWs)   bands (ev):

   -11.6905 -10.2834  -9.8935  -8.4966  -5.7180  -4.4401  -4.3144  -3.4583
    -2.8013  -1.4593  -0.4659   0.6904   1.9881   2.2064   2.6504   2.9334

          k = 0.1000 0.1732 0.0000 ( 41741 PWs)   bands (ev):

   -12.8309 -11.0526  -7.7445  -5.8316  -5.5322  -4.9571  -3.5642  -3.4683
    -1.7442  -1.6963  -1.0241  -0.9331   0.1162   0.6196   0.8493   1.2990

          k = 0.1000 0.2117 0.0000 ( 41731 PWs)   bands (ev):

   -12.7503 -10.9715  -8.0467  -6.1573  -5.4545  -5.0902  -3.6952  -3.2696
    -1.6123  -1.5177  -1.2222  -0.8909   0.4516   0.6583   0.9348   1.3908

          k = 0.1000 0.2502 0.0000 ( 41710 PWs)   bands (ev):

   -12.6545 -10.8750  -8.3566  -6.4869  -5.3662  -5.2207  -3.8276  -3.1146
    -1.5123  -1.4367  -1.3392  -0.7774   0.7629   0.8236   1.0359   1.5050

          k = 0.1000 0.2887 0.0000 ( 41710 PWs)   bands (ev):

   -12.5444 -10.7639  -8.6669  -6.8137  -5.3678  -5.2424  -3.9550  -3.0172
    -1.6582  -1.3973  -1.2217  -0.5823   0.9404   1.1500   1.2251   1.6301

          k = 0.1000 0.3272 0.0000 ( 41702 PWs)   bands (ev):

   -12.4211 -10.6394  -8.9720  -7.1329  -5.4817  -5.1297  -4.0728  -2.9768
    -1.8785  -1.2681  -1.1608  -0.3094   1.1680   1.2783   1.6458   1.7816

          k = 0.1000 0.3657 0.0000 ( 41676 PWs)   bands (ev):

   -12.2864 -10.5030  -9.2670  -7.4398  -5.5874  -5.0018  -4.1779  -2.9835
    -2.0885  -1.1423  -1.1249   0.0265   1.3590   1.4146   1.9503   1.9925

          k = 0.1000 0.4041 0.0000 ( 41606 PWs)   bands (ev):

   -12.1432 -10.3577  -9.5466  -7.7298  -5.6785  -4.8659  -4.2679  -3.0276
    -2.2772  -1.1450  -0.9742   0.4077   1.3474   1.5518   2.1146   2.1731

          k = 0.1000 0.4426 0.0000 ( 41597 PWs)   bands (ev):

   -11.9965 -10.2085  -9.8042  -7.9963  -5.7530  -4.7274  -4.3415  -3.1019
    -2.4326  -1.1596  -0.8171   0.8160   1.1773   1.6747   2.2997   2.3039

          k = 0.1000 0.4811 0.0000 ( 41551 PWs)   bands (ev):

   -11.8554 -10.0644 -10.0294  -8.2292  -5.8097  -4.5947  -4.3975  -3.1969
    -2.5458  -1.1764  -0.6629   0.9786   1.2298   1.7610   2.3475   2.5175

          k = 0.1000 0.5196 0.0000 ( 41524 PWs)   bands (ev):

   -11.7361 -10.2051  -9.9418  -8.4113  -5.8478  -4.4829  -4.4351  -3.2917
    -2.6162  -1.1900  -0.5286   0.8062   1.6105   1.8019   2.4597   2.7476

          k = 0.1000 0.5581 0.0000 ( 41499 PWs)   bands (ev):

   -11.6642 -10.3055  -9.8675  -8.5156  -5.8670  -4.4541  -4.4155  -3.3536
    -2.6493  -1.1975  -0.4444   0.7013   1.8138   1.8698   2.6130   2.9690

          k = 0.1333 0.2309 0.0000 ( 41735 PWs)   bands (ev):

   -12.6623 -10.8829  -8.3302  -6.4580  -5.3749  -5.2337  -3.8408  -3.0689
    -1.5205  -1.4017  -1.2894  -0.8741   0.6802   0.8312   1.0267   1.4922

          k = 0.1333 0.2694 0.0000 ( 41700 PWs)   bands (ev):

   -12.5596 -10.7793  -8.6207  -6.7635  -5.4009  -5.2564  -3.9858  -2.9093
    -1.5940  -1.4133  -1.0980  -0.7862   0.7625   1.1323   1.2435   1.6100

          k = 0.1333 0.3079 0.0000 ( 41692 PWs)   bands (ev):

   -12.4430 -10.6616  -8.9119  -7.0677  -5.5348  -5.1498  -4.1228  -2.8131
    -1.7862  -1.2915  -0.9634  -0.6133   0.9187   1.2495   1.6795   1.7468

          k = 0.1333 0.3464 0.0000 ( 41668 PWs)   bands (ev):

   -12.3139 -10.5310  -9.1983  -7.3655  -5.6603  -5.0271  -4.2470  -2.7882
    -1.9651  -1.1564  -0.8873  -0.3571   1.1303   1.3732   1.9024   1.9554

          k = 0.1333 0.3849 0.0000 ( 41630 PWs)   bands (ev):

   -12.1743 -10.3896  -9.4750  -7.6521  -5.7704  -4.8945  -4.3556  -2.8301
    -2.1167  -1.0103  -0.8550  -0.0331   1.2983   1.4932   1.9154   2.0805

          k = 0.1333 0.4234 0.0000 ( 41612 PWs)   bands (ev):

   -12.0279 -10.2410  -9.7362  -7.9221  -5.8626  -4.7560  -4.4463  -2.9260
    -2.2317  -0.8683  -0.8367   0.3376   1.2459   1.5894   2.0711   2.1984

          k = 0.1333 0.4619 0.0000 ( 41600 PWs)   bands (ev):

   -11.8811 -10.0914  -9.9737  -8.1674  -5.9354  -4.6180  -4.5179  -3.0539
    -2.3108  -0.8600  -0.6947   0.7329   1.0665   1.6399   2.2566   2.3611

          k = 0.1333 0.5004 0.0000 ( 41536 PWs)   bands (ev):

   -11.7458 -10.1746  -9.9530  -8.3750  -5.9879  -4.5695  -4.4915  -3.1853
    -2.3613  -0.8695  -0.5475   0.8804   1.1231   1.6497   2.3832   2.6260

          k = 0.1333 0.5389 0.0000 ( 41541 PWs)   bands (ev):

   -11.6435 -10.3166  -9.8476  -8.5222  -6.0196  -4.6007  -4.3961  -3.2880
    -2.3895  -0.8772  -0.4324   0.7375   1.4500   1.6444   2.5516   2.8709

          k = 0.1333 0.5774 0.0000 ( 41552 PWs)   bands (ev):

   -11.6039 -10.3696  -9.8066  -8.5771  -6.0302  -4.6111  -4.3592  -3.3280
    -2.3985  -0.8801  -0.3865   0.6818   1.5914   1.6409   2.6928   2.8887

          k = 0.1667 0.2887 0.0000 ( 41681 PWs)   bands (ev):

   -12.4503 -10.6690  -8.8911  -7.0450  -5.5546  -5.1566  -4.1417  -2.7481
    -1.7415  -1.2993  -0.8776  -0.7379   0.8118   1.2397   1.6916   1.7393

          k = 0.1667 0.3272 0.0000 ( 41659 PWs)   bands (ev):

   -12.3277 -10.5450  -9.1621  -7.3260  -5.7018  -5.0399  -4.2872  -2.6733
    -1.8596  -1.1713  -0.7066  -0.6071   0.9321   1.3518   1.8828   2.0259

          k = 0.1667 0.3657 0.0000 ( 41643 PWs)   bands (ev):

   -12.1931 -10.4089  -9.4290  -7.6018  -5.8336  -4.9118  -4.4171  -2.7035
    -1.9363  -1.0309  -0.5980  -0.3851   1.1147   1.4554   1.8206   2.0468

          k = 0.1667 0.4041 0.0000 ( 41614 PWs)   bands (ev):

   -12.0493 -10.2630  -9.6866  -7.8674  -5.9466  -4.7755  -4.5284  -2.8139
    -1.9823  -0.8805  -0.5426  -0.0850   1.2443   1.5260   1.7446   2.1316

          k = 0.1667 0.4426 0.0000 ( 41586 PWs)   bands (ev):

   -11.9004 -10.1118  -9.9285  -8.1167  -6.0386  -4.6354  -4.6190  -2.9629
    -2.0140  -0.7251  -0.5203   0.2675   1.1454   1.5439   1.9535   2.1939

          k = 0.1667 0.4811 0.0000 ( 41561 PWs)   bands (ev):

   -11.7549 -10.1452  -9.9633  -8.3398  -6.1084  -4.6877  -4.4993  -3.1182
    -2.0383  -0.5786  -0.5082   0.6422   0.9631   1.5255   2.2810   2.3255

          k = 0.1667 0.5196 0.0000 ( 41536 PWs)   bands (ev):

   -11.6286 -10.3194  -9.8339  -8.5197  -6.1553  -4.7338  -4.3819  -3.2529
    -2.0555  -0.5294  -0.4232   0.7959   0.9953   1.5002   2.4937   2.6081

          k = 0.1667 0.5581 0.0000 ( 41571 PWs)   bands (ev):

   -11.5499 -10.4223  -9.7527  -8.6261  -6.1788  -4.7570  -4.3090  -3.3356
    -2.0645  -0.5287  -0.3395   0.6916   1.2388   1.4845   2.6726   2.8845

          k = 0.2000 0.3464 0.0000 ( 41669 PWs)   bands (ev):

   -12.1994 -10.4153  -9.4131  -7.5843  -5.8560  -4.9177  -4.4392  -2.6623
    -1.8426  -1.0379  -0.5343  -0.4840   1.0062   1.4423   1.8103   2.0352

          k = 0.2000 0.3849 0.0000 ( 41609 PWs)   bands (ev):

   -12.0601 -10.2742  -9.6604  -7.8383  -5.9918  -4.7854  -4.5732  -2.7628
    -1.7765  -0.8929  -0.3704  -0.3233   1.1459   1.4922   1.6140   2.0985

          k = 0.2000 0.4234 0.0000 ( 41600 PWs)   bands (ev):

   -11.9124 -10.1244  -9.8989  -8.0831  -6.1058  -4.6857  -4.6462  -2.9140
    -1.7238  -0.7395  -0.2295  -0.1151   1.2085   1.4825   1.5861   2.1572

          k = 0.2000 0.4619 0.0000 ( 41568 PWs)   bands (ev):

   -11.7618 -10.1219  -9.9712  -8.3119  -6.1958  -4.7746  -4.5053  -3.0786
    -1.6979  -0.5827  -0.1849   0.2041   1.0571   1.4381   1.8445   2.2870

          k = 0.2000 0.5004 0.0000 ( 41537 PWs)   bands (ev):

   -11.6188 -10.3175  -9.8252  -8.5128  -6.2608  -4.8388  -4.3724  -3.2335
    -1.6893  -0.4329  -0.1687   0.5438   0.8791   1.3916   2.1772   2.4502

          k = 0.2000 0.5389 0.0000 ( 41541 PWs)   bands (ev):

   -11.5055 -10.4626  -9.7091  -8.6623  -6.3001  -4.8775  -4.2678  -3.3530
    -1.6880  -0.3107  -0.1686   0.7402   0.8367   1.3594   2.4973   2.5969

          k = 0.2000 0.5774 0.0000 ( 41574 PWs)   bands (ev):

   -11.4596 -10.5192  -9.6618  -8.7207  -6.3132  -4.8905  -4.2255  -3.4004
    -1.6882  -0.2561  -0.1751   0.6853   0.9638   1.3479   2.6226   2.6904

          k = 0.2333 0.4041 0.0000 ( 41597 PWs)   bands (ev):

   -11.9165 -10.1287  -9.8886  -8.0714  -6.1290  -4.7089  -4.6499  -2.8985
    -1.5838  -0.7446  -0.2845  -0.0999   1.2477   1.4138   1.4614   2.1451

          k = 0.2333 0.4426 0.0000 ( 41570 PWs)   bands (ev):

   -11.7656 -10.1091  -9.9754  -8.2965  -6.2416  -4.8206  -4.5085  -3.0599
    -1.4347  -0.5893  -0.1059   0.0451   1.1897   1.3930   1.4755   2.2678

          k = 0.2333 0.4811 0.0000 ( 41551 PWs)   bands (ev):

   -11.6134 -10.3144  -9.8207  -8.5063  -6.3275  -4.9058  -4.3670  -3.2231
    -1.3480  -0.4331   0.1150   0.1513   1.0077   1.3243   1.7567   2.4235

          k = 0.2333 0.5196 0.0000 ( 41528 PWs)   bands (ev):

   -11.4740 -10.4899  -9.6784  -8.6858  -6.3853  -4.9631  -4.2383  -3.3686
    -1.3066  -0.2892   0.1313   0.4298   0.8570   1.2728   2.0731   2.5388

          k = 0.2333 0.5581 0.0000 ( 41555 PWs)   bands (ev):

   -11.3798 -10.6022  -9.5818  -8.8011  -6.4144  -4.9920  -4.1520  -3.4640
    -1.2909  -0.1887   0.1188   0.6303   0.7685   1.2453   2.3451   2.4477

          k = 0.2667 0.4619 0.0000 ( 41578 PWs)   bands (ev):

   -11.6117 -10.3131  -9.8193  -8.5037  -6.3503  -4.9287  -4.3653  -3.2198
    -1.1798  -0.4336  -0.0339   0.2290   1.1384   1.3015   1.5095   2.4146

          k = 0.2667 0.5004 0.0000 ( 41556 PWs)   bands (ev):

   -11.4575 -10.5036  -9.6625  -8.6973  -6.4292  -5.0075  -4.2230  -3.3775
    -1.0041  -0.2797   0.1121   0.2929   1.0572   1.2285   1.7067   2.5093

          k = 0.2667 0.5389 0.0000 ( 41537 PWs)   bands (ev):

   -11.3215 -10.6615  -9.5240  -8.8582  -6.4771  -5.0553  -4.0985  -3.5122
    -0.9144  -0.1446   0.2678   0.2835   0.9991   1.1820   1.9652   2.3441

          k = 0.2667 0.5774 0.0000 ( 41508 PWs)   bands (ev):

   -11.2579 -10.7325  -9.4589  -8.9308  -6.4932  -5.0713  -4.0407  -3.5737
    -0.8884  -0.0799   0.2356   0.3653   0.9795   1.1658   2.1168   2.2324

          k = 0.3000 0.5196 0.0000 ( 41530 PWs)   bands (ev):

   -11.2995 -10.6838  -9.5022  -8.8795  -6.4984  -5.0768  -4.0783  -3.5308
    -0.7115  -0.1292   0.0887   0.3025   1.1606   1.1995   1.7275   2.3108

          k = 0.3000 0.5581 0.0000 ( 41527 PWs)   bands (ev):

   -11.1628 -10.8316  -9.3634  -9.0293  -6.5333  -5.1119  -3.9544  -3.6594
    -0.5349  -0.0034   0.0807   0.2323   1.1252   1.2921   1.8240   2.1179

          k = 0.3333 0.5774 0.0000 ( 41484 PWs)   bands (ev):

   -10.9991 -10.9991  -9.1981  -9.1981  -6.5522  -5.1310  -3.8075  -3.8075
    -0.1947  -0.1947   0.1272   0.1272   1.1057   1.5973   1.5973   2.0332

     the Fermi energy is    -2.7797 ev

!    total energy              =     -27.90538990 Ry
     Harris-Foulkes estimate   =     -27.90538990 Ry
     estimated scf accuracy    <          1.9E-11 Ry

     The total energy is the sum of the following terms:

     one-electron contribution =    -516.32651992 Ry
     hartree contribution      =     259.27925083 Ry
     xc contribution           =      -8.21262799 Ry
     ewald contribution        =     237.35456238 Ry
     smearing contrib. (-TS)   =      -0.00005520 Ry

     convergence has been achieved in  10 iterations

     Forces acting on atoms (Ry/au):

     atom    1 type  1   force =     0.00000000    0.00000000   -0.00000027
     atom    2 type  1   force =     0.00000000    0.00000000   -0.00000027
     atom    3 type  1   force =     0.00000000    0.00000000    0.00000027
     atom    4 type  1   force =     0.00000000    0.00000000    0.00000027

     Total force =     0.000001     Total SCF correction =     0.000005
     SCF correction compared to forces is large: reduce conv_thr to get better values


     entering subroutine stress ...

          total   stress  (Ry/bohr**3)                   (kbar)     P=    3.95
   0.00004033   0.00000000   0.00000000          5.93      0.00      0.00
   0.00000000   0.00004033   0.00000000          0.00      5.93      0.00
   0.00000000   0.00000000  -0.00000002          0.00      0.00      0.00


     BFGS Geometry Optimization

     number of scf cycles    =   1
     number of bfgs steps    =   0

     enthalpy new            =     -27.9053899005 Ry

     new trust radius        =       0.0168364953 bohr
     new conv_thr            =            1.0E-10 Ry

     new unit-cell volume =   6986.33701 a.u.^3 (  1035.26832 Ang^3 )

CELL_PARAMETERS (alat=  9.30281858)
   1.001008172   0.000000000   0.000000000
  -0.500504086   0.866898506   0.000000000
   0.000000000   0.000000000  10.000000000

ATOMIC_POSITIONS (crystal)
Sn       0.666666667   0.333333333   0.010962834
Sn       0.333333333   0.666666667   0.010962834
Sn       0.666666667   0.333333333   0.070733961
Sn       0.333333333   0.666666667   0.070733961



     Writing output data file SnBLrelax.save
     NEW-OLD atomic charge density approx. for the potential
     NEW k-points:
        k(    1) = (   0.0000000   0.0000000   0.0000000), wk =   0.0022222
        k(    2) = (   0.0000000   0.0384513   0.0000000), wk =   0.0133333
        k(    3) = (   0.0000000   0.0769025   0.0000000), wk =   0.0133333
        k(    4) = (   0.0000000   0.1153538   0.0000000), wk =   0.0133333
        k(    5) = (   0.0000000   0.1538050   0.0000000), wk =   0.0133333
        k(    6) = (   0.0000000   0.1922563   0.0000000), wk =   0.0133333
        k(    7) = (   0.0000000   0.2307075   0.0000000), wk =   0.0133333
        k(    8) = (   0.0000000   0.2691588   0.0000000), wk =   0.0133333
        k(    9) = (   0.0000000   0.3076100   0.0000000), wk =   0.0133333
        k(   10) = (   0.0000000   0.3460613   0.0000000), wk =   0.0133333
        k(   11) = (   0.0000000   0.3845125   0.0000000), wk =   0.0133333
        k(   12) = (   0.0000000   0.4229638   0.0000000), wk =   0.0133333
        k(   13) = (   0.0000000   0.4614150   0.0000000), wk =   0.0133333
        k(   14) = (   0.0000000   0.4998663   0.0000000), wk =   0.0133333
        k(   15) = (   0.0000000   0.5383175   0.0000000), wk =   0.0133333
        k(   16) = (   0.0000000  -0.5767688   0.0000000), wk =   0.0066667
        k(   17) = (   0.0332998   0.0576769   0.0000000), wk =   0.0133333
        k(   18) = (   0.0332998   0.0961281   0.0000000), wk =   0.0266667
        k(   19) = (   0.0332998   0.1345794   0.0000000), wk =   0.0266667
        k(   20) = (   0.0332998   0.1730306   0.0000000), wk =   0.0266667
        k(   21) = (   0.0332998   0.2114819   0.0000000), wk =   0.0266667
        k(   22) = (   0.0332998   0.2499331   0.0000000), wk =   0.0266667
        k(   23) = (   0.0332998   0.2883844   0.0000000), wk =   0.0266667
        k(   24) = (   0.0332998   0.3268356   0.0000000), wk =   0.0266667
        k(   25) = (   0.0332998   0.3652869   0.0000000), wk =   0.0266667
        k(   26) = (   0.0332998   0.4037382   0.0000000), wk =   0.0266667
        k(   27) = (   0.0332998   0.4421894   0.0000000), wk =   0.0266667
        k(   28) = (   0.0332998   0.4806407   0.0000000), wk =   0.0266667
        k(   29) = (   0.0332998   0.5190919   0.0000000), wk =   0.0266667
        k(   30) = (   0.0332998   0.5575432   0.0000000), wk =   0.0266667
        k(   31) = (   0.0665995   0.1153538   0.0000000), wk =   0.0133333
        k(   32) = (   0.0665995   0.1538050   0.0000000), wk =   0.0266667
        k(   33) = (   0.0665995   0.1922563   0.0000000), wk =   0.0266667
        k(   34) = (   0.0665995   0.2307075   0.0000000), wk =   0.0266667
        k(   35) = (   0.0665995   0.2691588   0.0000000), wk =   0.0266667
        k(   36) = (   0.0665995   0.3076100   0.0000000), wk =   0.0266667
        k(   37) = (   0.0665995   0.3460613   0.0000000), wk =   0.0266667
        k(   38) = (   0.0665995   0.3845125   0.0000000), wk =   0.0266667
        k(   39) = (   0.0665995   0.4229638   0.0000000), wk =   0.0266667
        k(   40) = (   0.0665995   0.4614150   0.0000000), wk =   0.0266667
        k(   41) = (   0.0665995   0.4998663   0.0000000), wk =   0.0266667
        k(   42) = (   0.0665995   0.5383175   0.0000000), wk =   0.0266667
        k(   43) = (   0.0665995   0.5767688   0.0000000), wk =   0.0133333
        k(   44) = (   0.0998993   0.1730306   0.0000000), wk =   0.0133333
        k(   45) = (   0.0998993   0.2114819   0.0000000), wk =   0.0266667
        k(   46) = (   0.0998993   0.2499331   0.0000000), wk =   0.0266667
        k(   47) = (   0.0998993   0.2883844   0.0000000), wk =   0.0266667
        k(   48) = (   0.0998993   0.3268356   0.0000000), wk =   0.0266667
        k(   49) = (   0.0998993   0.3652869   0.0000000), wk =   0.0266667
        k(   50) = (   0.0998993   0.4037382   0.0000000), wk =   0.0266667
        k(   51) = (   0.0998993   0.4421894   0.0000000), wk =   0.0266667
        k(   52) = (   0.0998993   0.4806407   0.0000000), wk =   0.0266667
        k(   53) = (   0.0998993   0.5190919   0.0000000), wk =   0.0266667
        k(   54) = (   0.0998993   0.5575432   0.0000000), wk =   0.0266667
        k(   55) = (   0.1331990   0.2307075   0.0000000), wk =   0.0133333
        k(   56) = (   0.1331990   0.2691588   0.0000000), wk =   0.0266667
        k(   57) = (   0.1331990   0.3076100   0.0000000), wk =   0.0266667
        k(   58) = (   0.1331990   0.3460613   0.0000000), wk =   0.0266667
        k(   59) = (   0.1331990   0.3845125   0.0000000), wk =   0.0266667
        k(   60) = (   0.1331990   0.4229638   0.0000000), wk =   0.0266667
        k(   61) = (   0.1331990   0.4614150   0.0000000), wk =   0.0266667
        k(   62) = (   0.1331990   0.4998663   0.0000000), wk =   0.0266667
        k(   63) = (   0.1331990   0.5383175   0.0000000), wk =   0.0266667
        k(   64) = (   0.1331990   0.5767688   0.0000000), wk =   0.0133333
        k(   65) = (   0.1664988   0.2883844   0.0000000), wk =   0.0133333
        k(   66) = (   0.1664988   0.3268356   0.0000000), wk =   0.0266667
        k(   67) = (   0.1664988   0.3652869   0.0000000), wk =   0.0266667
        k(   68) = (   0.1664988   0.4037382   0.0000000), wk =   0.0266667
        k(   69) = (   0.1664988   0.4421894   0.0000000), wk =   0.0266667
        k(   70) = (   0.1664988   0.4806407   0.0000000), wk =   0.0266667
        k(   71) = (   0.1664988   0.5190919   0.0000000), wk =   0.0266667
        k(   72) = (   0.1664988   0.5575432   0.0000000), wk =   0.0266667
        k(   73) = (   0.1997986   0.3460613   0.0000000), wk =   0.0133333
        k(   74) = (   0.1997986   0.3845125   0.0000000), wk =   0.0266667
        k(   75) = (   0.1997986   0.4229638   0.0000000), wk =   0.0266667
        k(   76) = (   0.1997986   0.4614150   0.0000000), wk =   0.0266667
        k(   77) = (   0.1997986   0.4998663   0.0000000), wk =   0.0266667
        k(   78) = (   0.1997986   0.5383175   0.0000000), wk =   0.0266667
        k(   79) = (   0.1997986   0.5767688   0.0000000), wk =   0.0133333
        k(   80) = (   0.2330983   0.4037382   0.0000000), wk =   0.0133333
        k(   81) = (   0.2330983   0.4421894   0.0000000), wk =   0.0266667
        k(   82) = (   0.2330983   0.4806407   0.0000000), wk =   0.0266667
        k(   83) = (   0.2330983   0.5190919   0.0000000), wk =   0.0266667
        k(   84) = (   0.2330983   0.5575432   0.0000000), wk =   0.0266667
        k(   85) = (   0.2663981   0.4614150   0.0000000), wk =   0.0133333
        k(   86) = (   0.2663981   0.4998663   0.0000000), wk =   0.0266667
        k(   87) = (   0.2663981   0.5383175   0.0000000), wk =   0.0266667
        k(   88) = (   0.2663981   0.5767688   0.0000000), wk =   0.0133333
        k(   89) = (   0.2996979   0.5190919   0.0000000), wk =   0.0133333
        k(   90) = (   0.2996979   0.5575432   0.0000000), wk =   0.0266667
        k(   91) = (   0.3329976   0.5767688   0.0000000), wk =   0.0044444

     negative rho (up, down):  0.112E-05 0.000E+00
     extrapolated charge   16.02416, renormalised to   16.00000

     total cpu time spent up to now is      167.2 secs

     per-process dynamical memory:    19.7 Mb

     Self-consistent Calculation

     iteration #  1     ecut=    50.00 Ry     beta=0.70
     Davidson diagonalization with overlap
     c_bands:  3 eigenvalues not converged
     c_bands:  3 eigenvalues not converged
     c_bands:  3 eigenvalues not converged
     c_bands:  3 eigenvalues not converged
     c_bands:  3 eigenvalues not converged
     c_bands:  1 eigenvalues not converged
     c_bands:  2 eigenvalues not converged
     c_bands:  2 eigenvalues not converged
     c_bands:  1 eigenvalues not converged
     c_bands:  1 eigenvalues not converged
     c_bands:  2 eigenvalues not converged
     c_bands:  1 eigenvalues not converged
     c_bands:  3 eigenvalues not converged
     c_bands:  3 eigenvalues not converged
     c_bands:  2 eigenvalues not converged
     c_bands:  3 eigenvalues not converged
     c_bands:  3 eigenvalues not converged
     c_bands:  2 eigenvalues not converged
     c_bands:  2 eigenvalues not converged
     c_bands:  2 eigenvalues not converged
     c_bands:  1 eigenvalues not converged
     c_bands:  1 eigenvalues not converged
     c_bands:  3 eigenvalues not converged
     c_bands:  3 eigenvalues not converged
     c_bands:  3 eigenvalues not converged
     c_bands:  2 eigenvalues not converged
     c_bands:  2 eigenvalues not converged
     c_bands:  2 eigenvalues not converged
     c_bands:  4 eigenvalues not converged
     c_bands:  1 eigenvalues not converged
     c_bands:  3 eigenvalues not converged
     c_bands:  2 eigenvalues not converged
     c_bands:  2 eigenvalues not converged
     c_bands:  3 eigenvalues not converged
     c_bands:  2 eigenvalues not converged
     c_bands:  1 eigenvalues not converged
     c_bands:  2 eigenvalues not converged
     c_bands:  2 eigenvalues not converged
     c_bands:  2 eigenvalues not converged
     c_bands:  2 eigenvalues not converged
     c_bands:  2 eigenvalues not converged
     c_bands:  2 eigenvalues not converged
     c_bands:  2 eigenvalues not converged
     c_bands:  2 eigenvalues not converged
     c_bands:  3 eigenvalues not converged
     c_bands:  1 eigenvalues not converged
     c_bands:  2 eigenvalues not converged
     c_bands:  2 eigenvalues not converged
     c_bands:  2 eigenvalues not converged
     c_bands:  2 eigenvalues not converged
     c_bands:  3 eigenvalues not converged
     c_bands:  1 eigenvalues not converged
     c_bands:  1 eigenvalues not converged
     c_bands:  1 eigenvalues not converged
     c_bands:  2 eigenvalues not converged
     c_bands:  2 eigenvalues not converged
     c_bands:  2 eigenvalues not converged
     c_bands:  1 eigenvalues not converged
     c_bands:  1 eigenvalues not converged
     c_bands:  1 eigenvalues not converged
     c_bands:  1 eigenvalues not converged
     c_bands:  1 eigenvalues not converged
     c_bands:  1 eigenvalues not converged
     ethr =  1.00E-06,  avg # of iterations = 18.7

     negative rho (up, down):  0.299E-06 0.000E+00

     total cpu time spent up to now is      197.6 secs

     total energy              =     -27.90529208 Ry
     Harris-Foulkes estimate   =     -27.14021769 Ry
     estimated scf accuracy    <       0.00056707 Ry

     iteration #  2     ecut=    50.00 Ry     beta=0.70
     Davidson diagonalization with overlap
     c_bands:  1 eigenvalues not converged
     c_bands:  1 eigenvalues not converged
     c_bands:  1 eigenvalues not converged
     c_bands:  1 eigenvalues not converged
     c_bands:  1 eigenvalues not converged
     c_bands:  1 eigenvalues not converged
     c_bands:  1 eigenvalues not converged
     c_bands:  1 eigenvalues not converged
     c_bands:  1 eigenvalues not converged
     c_bands:  1 eigenvalues not converged
     c_bands:  1 eigenvalues not converged
     c_bands:  1 eigenvalues not converged
     c_bands:  2 eigenvalues not converged
     ethr =  3.54E-06,  avg # of iterations = 13.5

     negative rho (up, down):  0.232E-06 0.000E+00

     total cpu time spent up to now is      221.8 secs

     total energy              =     -27.90570539 Ry
     Harris-Foulkes estimate   =     -27.90677682 Ry
     estimated scf accuracy    <       0.00337287 Ry

     iteration #  3     ecut=    50.00 Ry     beta=0.70
     Davidson diagonalization with overlap
     c_bands:  1 eigenvalues not converged
     ethr =  3.54E-06,  avg # of iterations =  3.9

     negative rho (up, down):  0.141E-06 0.000E+00

     total cpu time spent up to now is      235.5 secs

     total energy              =     -27.90595482 Ry
     Harris-Foulkes estimate   =     -27.90601338 Ry
     estimated scf accuracy    <       0.00026988 Ry

     iteration #  4     ecut=    50.00 Ry     beta=0.70
     Davidson diagonalization with overlap
     ethr =  1.69E-06,  avg # of iterations =  1.1

     negative rho (up, down):  0.131E-06 0.000E+00

     total cpu time spent up to now is      245.4 secs

     total energy              =     -27.90596209 Ry
     Harris-Foulkes estimate   =     -27.90596527 Ry
     estimated scf accuracy    <       0.00008338 Ry

     iteration #  5     ecut=    50.00 Ry     beta=0.70
     Davidson diagonalization with overlap
     ethr =  5.21E-07,  avg # of iterations =  1.0

     negative rho (up, down):  0.886E-07 0.000E+00

     total cpu time spent up to now is      255.1 secs

     total energy              =     -27.90595086 Ry
     Harris-Foulkes estimate   =     -27.90596285 Ry
     estimated scf accuracy    <       0.00007206 Ry

     iteration #  6     ecut=    50.00 Ry     beta=0.70
     Davidson diagonalization with overlap
     ethr =  4.50E-07,  avg # of iterations =  1.0

     negative rho (up, down):  0.147E-07 0.000E+00

     total cpu time spent up to now is      264.9 secs

     total energy              =     -27.90594307 Ry
     Harris-Foulkes estimate   =     -27.90595320 Ry
     estimated scf accuracy    <       0.00002754 Ry

     iteration #  7     ecut=    50.00 Ry     beta=0.70
     Davidson diagonalization with overlap
     ethr =  1.72E-07,  avg # of iterations =  2.8

     total cpu time spent up to now is      276.3 secs

     total energy              =     -27.90594729 Ry
     Harris-Foulkes estimate   =     -27.90594737 Ry
     estimated scf accuracy    <       0.00000036 Ry

     iteration #  8     ecut=    50.00 Ry     beta=0.70
     Davidson diagonalization with overlap
     ethr =  2.26E-09,  avg # of iterations =  2.7

     total cpu time spent up to now is      287.4 secs

     total energy              =     -27.90594734 Ry
     Harris-Foulkes estimate   =     -27.90594736 Ry
     estimated scf accuracy    <       0.00000010 Ry

     iteration #  9     ecut=    50.00 Ry     beta=0.70
     Davidson diagonalization with overlap
     ethr =  5.94E-10,  avg # of iterations =  1.6

     total cpu time spent up to now is      297.6 secs

     total energy              =     -27.90594733 Ry
     Harris-Foulkes estimate   =     -27.90594735 Ry
     estimated scf accuracy    <       0.00000003 Ry

     iteration # 10     ecut=    50.00 Ry     beta=0.70
     Davidson diagonalization with overlap
     ethr =  1.68E-10,  avg # of iterations =  2.6

     total cpu time spent up to now is      309.0 secs

     total energy              =     -27.90594734 Ry
     Harris-Foulkes estimate   =     -27.90594734 Ry
     estimated scf accuracy    <          4.7E-10 Ry

     iteration # 11     ecut=    50.00 Ry     beta=0.70
     Davidson diagonalization with overlap
     ethr =  2.94E-12,  avg # of iterations =  2.8

     total cpu time spent up to now is      320.8 secs

     End of self-consistent calculation

          k = 0.0000 0.0000 0.0000 ( 41777 PWs)   bands (ev):

   -13.0444 -11.2667  -6.4567  -5.7443  -4.5325  -4.5325  -4.2187  -3.1487
    -3.1487  -1.9233  -0.8504  -0.8504  -0.3724   0.6086   1.0438   1.1007

          k = 0.0000 0.0385 0.0000 ( 41757 PWs)   bands (ev):

   -13.0362 -11.2585  -6.5369  -5.7362  -4.5495  -4.4610  -4.3576  -3.1653
    -3.0176  -1.9147  -0.8604  -0.8158  -0.4014   0.6178   0.6719   1.0526

          k = 0.0000 0.0769 0.0000 ( 41755 PWs)   bands (ev):

   -13.0115 -11.2337  -6.7467  -5.7119  -4.6626  -4.5982  -4.2799  -3.2131
    -2.7387  -1.8890  -0.8836  -0.7143  -0.4850   0.6453   0.6536   1.0826

          k = 0.0000 0.1154 0.0000 ( 41702 PWs)   bands (ev):

   -12.9705 -11.1925  -7.0320  -5.6716  -5.0222  -4.6729  -4.0503  -3.2866
    -2.4308  -1.8462  -0.9040  -0.6122  -0.5517   0.6452   0.6903   1.1303

          k = 0.0000 0.1538 0.0000 ( 41718 PWs)   bands (ev):

   -12.9134 -11.1351  -7.3545  -5.6155  -5.3979  -4.7661  -3.8216  -3.3786
    -2.1453  -1.7866  -0.9239  -0.7448  -0.3358   0.6709   0.7525   1.1961

          k = 0.0000 0.1923 0.0000 ( 41724 PWs)   bands (ev):

   -12.8405 -11.0617  -7.6932  -5.7752  -5.5441  -4.8704  -3.6277  -3.4818
    -1.9114  -1.7103  -1.0511  -0.7393  -0.0747   0.7550   0.8313   1.2801

          k = 0.0000 0.2307 0.0000 ( 41676 PWs)   bands (ev):

   -12.7522 -10.9728  -8.0361  -6.1473  -5.4579  -4.9789  -3.5895  -3.4885
    -1.7454  -1.6178  -1.2621  -0.5920   0.2242   0.9110   0.9266   1.3835

          k = 0.0000 0.2692 0.0000 ( 41680 PWs)   bands (ev):

   -12.6491 -10.8689  -8.3759  -6.5099  -5.3577  -5.0862  -3.6964  -3.4083
    -1.6476  -1.5101  -1.4958  -0.3513   0.5545   1.0379   1.1298   1.5084

          k = 0.0000 0.3076 0.0000 ( 41690 PWs)   bands (ev):

   -12.5323 -10.7510  -8.7075  -6.8598  -5.2448  -5.1882  -3.7981  -3.3784
    -1.7370  -1.6052  -1.3879  -0.0341   0.9104   1.1648   1.3637   1.6594

          k = 0.0000 0.3461 0.0000 ( 41670 PWs)   bands (ev):

   -12.4034 -10.6206  -9.0265  -7.1937  -5.2815  -5.1207  -3.8914  -3.3846
    -1.9772  -1.5999  -1.2523   0.3425   1.3063   1.5120   1.8252   1.8431

          k = 0.0000 0.3845 0.0000 ( 41684 PWs)   bands (ev):

   -12.2646 -10.4801  -9.3286  -7.5082  -5.3637  -4.9880  -3.9737  -3.4136
    -2.2087  -1.6155  -1.1053   0.7622   1.4610   1.4731   1.9830   2.0171

          k = 0.0000 0.4230 0.0000 ( 41634 PWs)   bands (ev):

   -12.1202 -10.3333  -9.6082  -7.7984  -5.4331  -4.8506  -4.0432  -3.4559
    -2.4230  -1.6401  -0.9505   1.2096   1.2970   1.6265   2.1612   2.2091

          k = 0.0000 0.4614 0.0000 ( 41562 PWs)   bands (ev):

   -11.9772 -10.1874  -9.8574  -8.0565  -5.4882  -4.7150  -4.0985  -3.5056
    -2.6098  -1.6654  -0.7943   1.0858   1.6663   1.8002   2.3632   2.4189

          k = 0.0000 0.4999 0.0000 ( 41590 PWs)   bands (ev):

   -11.8479 -10.0630 -10.0547  -8.2697  -5.5283  -4.5925  -4.1387  -3.5574
    -2.7566  -1.6866  -0.6488   0.8898   1.9622   2.1114   2.5853   2.6419

          k = 0.0000 0.5383 0.0000 ( 41526 PWs)   bands (ev):

   -11.7525 -10.2043  -9.9564  -8.4165  -5.5525  -4.5019  -4.1631  -3.6013
    -2.8505  -1.7003  -0.5372   0.7449   2.1094   2.4086   2.7495   2.8248

          k = 0.0000-0.5768 0.0000 ( 41556 PWs)   bands (ev):

   -11.7164 -10.2557  -9.9189  -8.4701  -5.5606  -4.4673  -4.1712  -3.6196
    -2.8828  -1.7051  -0.4933   0.6895   2.1775   2.4513   2.8726   2.9913

          k = 0.0333 0.0577 0.0000 ( 41751 PWs)   bands (ev):

   -13.0197 -11.2419  -6.6810  -5.7200  -4.5835  -4.5726  -4.3343  -3.1986
    -2.8183  -1.8975  -0.8786  -0.7464  -0.4576   0.6362   0.6561   0.7835

          k = 0.0333 0.0961 0.0000 ( 41715 PWs)   bands (ev):

   -12.9869 -11.2090  -6.9249  -5.6877  -4.8913  -4.6484  -4.1284  -3.2621
    -2.5345  -1.8633  -0.9040  -0.6208  -0.5533   0.6370   0.6724   1.1112

          k = 0.0333 0.1346 0.0000 ( 41725 PWs)   bands (ev):

   -12.9378 -11.1597  -7.2239  -5.6395  -5.2479  -4.7364  -3.8974  -3.3486
    -2.2422  -1.8122  -0.9205  -0.7124  -0.4072   0.6363   0.7259   1.1678

          k = 0.0333 0.1730 0.0000 ( 41732 PWs)   bands (ev):

   -12.8728 -11.0942  -7.5497  -5.6164  -5.5758  -4.8395  -3.6820  -3.4501
    -1.9814  -1.7442  -0.9758  -0.8039  -0.1615   0.6791   0.7962   1.2430

          k = 0.0333 0.2115 0.0000 ( 41694 PWs)   bands (ev):

   -12.7921 -11.0131  -7.8865  -5.9853  -5.4970  -4.9500  -3.5594  -3.5100
    -1.7774  -1.6597  -1.1607  -0.7234   0.1276   0.7869   0.8831   1.3362

          k = 0.0333 0.2499 0.0000 ( 41679 PWs)   bands (ev):

   -12.6964 -10.9166  -8.2245  -6.3483  -5.4040  -5.0616  -3.6702  -3.3954
    -1.6417  -1.5594  -1.3854  -0.5383   0.4520   0.9668   0.9862   1.4481

          k = 0.0333 0.2884 0.0000 ( 41706 PWs)   bands (ev):

   -12.5864 -10.8056  -8.5576  -6.7013  -5.2984  -5.1687  -3.7776  -3.3372
    -1.6227  -1.5688  -1.4445  -0.2696   0.8054   1.1050   1.1989   1.5827

          k = 0.0333 0.3268 0.0000 ( 41693 PWs)   bands (ev):

   -12.4633 -10.6813  -8.8809  -7.0408  -5.2733  -5.1757  -3.8778  -3.3237
    -1.8625  -1.5435  -1.3155   0.0675   1.1808   1.2398   1.4182   1.7424

          k = 0.0333 0.3653 0.0000 ( 41685 PWs)   bands (ev):

   -12.3290 -10.5454  -9.1901  -7.3634  -5.3621  -5.0485  -3.9678  -3.3407
    -2.0971  -1.5479  -1.1739   0.4560   1.3849   1.5007   1.9069   1.9339

          k = 0.0333 0.4037 0.0000 ( 41657 PWs)   bands (ev):

   -12.1867 -10.4010  -9.4803  -7.6649  -5.4397  -4.9130  -4.0455  -3.3768
    -2.3186  -1.5674  -1.0225   0.8799   1.3890   1.5433   2.0742   2.1174

          k = 0.0333 0.4422 0.0000 ( 41622 PWs)   bands (ev):

   -12.0417 -10.2534  -9.7449  -7.9392  -5.5035  -4.7755  -4.1093  -3.4245
    -2.5173  -1.5920  -0.8659   1.1898   1.3236   1.7087   2.2650   2.3181

          k = 0.0333 0.4806 0.0000 ( 41563 PWs)   bands (ev):

   -11.9033 -10.1118  -9.9738  -8.1763  -5.5523  -4.6446  -4.1581  -3.4786
    -2.6817  -1.6150  -0.7128   0.9828   1.7652   1.8737   2.4772   2.5321

          k = 0.0333 0.5191 0.0000 ( 41555 PWs)   bands (ev):

   -11.7875 -10.1501  -9.9928  -8.3593  -5.5852  -4.5351  -4.1910  -3.5316
    -2.7992  -1.6323  -0.5804   0.8080   2.0150   2.1638   2.6013   2.7080

          k = 0.0333 0.5575 0.0000 ( 41526 PWs)   bands (ev):

   -11.7186 -10.2495  -9.9214  -8.4627  -5.6018  -4.4694  -4.2076  -3.5676
    -2.8601  -1.6415  -0.4980   0.7033   2.1086   2.3780   2.6913   2.9805

          k = 0.0666 0.1154 0.0000 ( 41743 PWs)   bands (ev):

   -12.9460 -11.1679  -7.1775  -5.6475  -5.1937  -4.7313  -3.9193  -3.3430
    -2.2728  -1.8207  -0.9286  -0.7029  -0.4202   0.6163   0.7170   1.1582

          k = 0.0666 0.1538 0.0000 ( 41754 PWs)   bands (ev):

   -12.8890 -11.1105  -7.4724  -5.5917  -5.5294  -4.8363  -3.6957  -3.4457
    -2.0054  -1.7612  -0.9445  -0.8544  -0.1825   0.6163   0.7785   1.2232

          k = 0.0666 0.1923 0.0000 ( 41749 PWs)   bands (ev):

   -12.8162 -11.0373  -7.7889  -5.8781  -5.5208  -4.9534  -3.5607  -3.4923
    -1.7677  -1.6851  -1.0823  -0.8659   0.1057   0.6625   0.8566   1.3063

          k = 0.0666 0.2307 0.0000 ( 41697 PWs)   bands (ev):

   -12.7280 -10.9485  -8.1142  -6.2289  -5.4354  -5.0744  -3.6802  -3.3341
    -1.5954  -1.5815  -1.2957  -0.7516   0.4342   0.7755   0.9509   1.4082

          k = 0.0666 0.2692 0.0000 ( 41702 PWs)   bands (ev):

   -12.6251 -10.8447  -8.4400  -6.5753  -5.3383  -5.1912  -3.7979  -3.2329
    -1.5243  -1.4867  -1.4635  -0.5533   0.7950   0.9603   1.0610   1.5287

          k = 0.0666 0.3076 0.0000 ( 41696 PWs)   bands (ev):

   -12.5084 -10.7270  -8.7604  -6.9127  -5.3159  -5.2137  -3.9093  -3.1859
    -1.7582  -1.4042  -1.3631  -0.2773   1.1722   1.1937   1.1951   1.6705

          k = 0.0666 0.3461 0.0000 ( 41699 PWs)   bands (ev):

   -12.3795 -10.5966  -9.0706  -7.2369  -5.4138  -5.0946  -4.0109  -3.1814
    -1.9895  -1.3854  -1.2278   0.0621   1.3221   1.4007   1.5891   1.8351

          k = 0.0666 0.3845 0.0000 ( 41665 PWs)   bands (ev):

   -12.2406 -10.4559  -9.3659  -7.5441  -5.5032  -4.9627  -4.1002  -3.2064
    -2.2102  -1.3921  -1.0809   0.4480   1.4332   1.4702   2.0045   2.0439

          k = 0.0666 0.4230 0.0000 ( 41630 PWs)   bands (ev):

   -12.0958 -10.3087  -9.6406  -7.8290  -5.5787  -4.8254  -4.1753  -3.2518
    -2.4109  -1.4108  -0.9260   0.8643   1.2838   1.6228   2.1824   2.2349

          k = 0.0666 0.4614 0.0000 ( 41593 PWs)   bands (ev):

   -11.9520 -10.1620  -9.8866  -8.0837  -5.6386  -4.6895  -4.2349  -3.3119
    -2.5801  -1.4323  -0.7696   1.0802   1.2935   1.7692   2.3837   2.4227

          k = 0.0666 0.4999 0.0000 ( 41560 PWs)   bands (ev):

   -11.8213 -10.0907 -10.0281  -8.2952  -5.6821  -4.5665  -4.2781  -3.3797
    -2.7063  -1.4510  -0.6236   0.8869   1.7083   1.8895   2.4615   2.6050

          k = 0.0666 0.5383 0.0000 ( 41527 PWs)   bands (ev):

   -11.7245 -10.2319  -9.9282  -8.4419  -5.7084  -4.4752  -4.3042  -3.4391
    -2.7825  -1.4635  -0.5111   0.7426   1.9605   2.0482   2.5485   2.8435

          k = 0.0666 0.5768 0.0000 ( 41518 PWs)   bands (ev):

   -11.6876 -10.2836  -9.8900  -8.4957  -5.7172  -4.4403  -4.3129  -3.4638
    -2.8076  -1.4678  -0.4667   0.6872   1.9831   2.1852   2.6420   2.9271

          k = 0.0999 0.1730 0.0000 ( 41741 PWs)   bands (ev):

   -12.8242 -11.0454  -7.7549  -5.8403  -5.5287  -4.9590  -3.5654  -3.4798
    -1.7577  -1.6936  -1.0364  -0.9411   0.1041   0.6118   0.8477   1.2968

          k = 0.0999 0.2115 0.0000 ( 41731 PWs)   bands (ev):

   -12.7439 -10.9645  -8.0556  -6.1648  -5.4513  -5.0915  -3.6958  -3.2815
    -1.6098  -1.5316  -1.2336  -0.8993   0.4383   0.6503   0.9330   1.3885

          k = 0.0999 0.2499 0.0000 ( 41710 PWs)   bands (ev):

   -12.6484 -10.8683  -8.3642  -6.4931  -5.3634  -5.2214  -3.8277  -3.1265
    -1.5101  -1.4471  -1.3528  -0.7866   0.7541   0.8090   1.0338   1.4986

          k = 0.0999 0.2884 0.0000 ( 41710 PWs)   bands (ev):

   -12.5387 -10.7575  -8.6733  -6.8188  -5.3678  -5.2401  -3.9546  -3.0286
    -1.6678  -1.3953  -1.2347  -0.5928   0.9306   1.1475   1.2093   1.6273

          k = 0.0999 0.3268 0.0000 ( 41702 PWs)   bands (ev):

   -12.4157 -10.6334  -8.9773  -7.1369  -5.4815  -5.1276  -4.0720  -2.9873
    -1.8873  -1.2665  -1.1729  -0.3215   1.1574   1.2756   1.7757   1.8243

          k = 0.0999 0.3653 0.0000 ( 41676 PWs)   bands (ev):

   -12.2814 -10.4974  -9.2712  -7.4428  -5.5868  -5.0001  -4.1767  -2.9931
    -2.0966  -1.1527  -1.1245   0.0127   1.3495   1.4115   1.9457   2.0762

          k = 0.0999 0.4037 0.0000 ( 41606 PWs)   bands (ev):

   -12.1387 -10.3526  -9.5497  -7.7317  -5.6776  -4.8646  -4.2665  -3.0361
    -2.2850  -1.1555  -0.9735   0.3922   1.3408   1.5484   2.1087   2.2135

          k = 0.0999 0.4422 0.0000 ( 41597 PWs)   bands (ev):

   -11.9925 -10.2039  -9.8063  -7.9973  -5.7519  -4.7265  -4.3398  -3.1093
    -2.4402  -1.1696  -0.8168   0.7989   1.1722   1.6709   2.2958   2.2986

          k = 0.0999 0.4806 0.0000 ( 41551 PWs)   bands (ev):

   -11.8519 -10.0602 -10.0307  -8.2295  -5.8084  -4.5944  -4.3956  -3.2032
    -2.5534  -1.1860  -0.6631   0.9743   1.2109   1.7568   2.3433   2.5121

          k = 0.0999 0.5191 0.0000 ( 41524 PWs)   bands (ev):

   -11.7331 -10.2058  -9.9381  -8.4109  -5.8464  -4.4830  -4.4331  -3.2971
    -2.6240  -1.1994  -0.5291   0.8025   1.5899   1.7976   2.4549   2.7415

          k = 0.0999 0.5575 0.0000 ( 41499 PWs)   bands (ev):

   -11.6614 -10.3058  -9.8640  -8.5148  -5.8655  -4.4520  -4.4158  -3.3585
    -2.6572  -1.2068  -0.4453   0.6980   1.8095   1.8478   2.6071   2.9621

          k = 0.1332 0.2307 0.0000 ( 41735 PWs)   bands (ev):

   -12.6562 -10.8761  -8.3380  -6.4644  -5.3721  -5.2342  -3.8409  -3.0812
    -1.5183  -1.4125  -1.3036  -0.8824   0.6721   1.0246   1.4888   1.5407

          k = 0.1332 0.2692 0.0000 ( 41700 PWs)   bands (ev):

   -12.5538 -10.7729  -8.6273  -6.7689  -5.4008  -5.2540  -3.9853  -2.9215
    -1.6042  -1.4113  -1.1121  -0.7951   0.7539   1.1300   1.6072   1.6597

          k = 0.1332 0.3076 0.0000 ( 41692 PWs)   bands (ev):

   -12.4376 -10.6555  -8.9174  -7.0720  -5.5343  -5.1476  -4.1217  -2.8246
    -1.7959  -1.2899  -0.9771  -0.6233   0.9092   1.2469   1.7438   1.7967

          k = 0.1332 0.3461 0.0000 ( 41668 PWs)   bands (ev):

   -12.3088 -10.5253  -9.2028  -7.3688  -5.6594  -5.0253  -4.2455  -2.7985
    -1.9745  -1.1551  -0.9002  -0.3687   1.1200   1.3703   1.8979   2.0149

          k = 0.1332 0.3845 0.0000 ( 41630 PWs)   bands (ev):

   -12.1697 -10.3843  -9.4785  -7.6545  -5.7691  -4.8931  -4.3537  -2.8389
    -2.1261  -1.0094  -0.8670  -0.0465   1.2894   1.4899   1.9046   2.0756

          k = 0.1332 0.4230 0.0000 ( 41612 PWs)   bands (ev):

   -12.0238 -10.2362  -9.7387  -7.9236  -5.8610  -4.7551  -4.4441  -2.9333
    -2.2412  -0.8737  -0.8421   0.3225   1.2398   1.5858   2.0575   2.1950

          k = 0.1332 0.4614 0.0000 ( 41600 PWs)   bands (ev):

   -11.8775 -10.0871  -9.9754  -8.1681  -5.9335  -4.6175  -4.5154  -3.0599
    -2.3204  -0.8706  -0.6949   0.7160   1.0617   1.6362   2.2527   2.3479

          k = 0.1332 0.4999 0.0000 ( 41536 PWs)   bands (ev):

   -11.7427 -10.1756  -9.9492  -8.3750  -5.9858  -4.5669  -4.4915  -3.1903
    -2.3709  -0.8798  -0.5480   0.8763   1.1042   1.6461   2.3788   2.6175

          k = 0.1332 0.5383 0.0000 ( 41541 PWs)   bands (ev):

   -11.6408 -10.3171  -9.8442  -8.5215  -6.0174  -4.5980  -4.3965  -3.2924
    -2.3990  -0.8874  -0.4333   0.7339   1.4292   1.6408   2.5464   2.8638

          k = 0.1332 0.5768 0.0000 ( 41552 PWs)   bands (ev):

   -11.6013 -10.3698  -9.8034  -8.5763  -6.0280  -4.6084  -4.3597  -3.3322
    -2.4080  -0.8903  -0.3875   0.6783   1.5695   1.6374   2.6869   2.8811

          k = 0.1665 0.2884 0.0000 ( 41681 PWs)   bands (ev):

   -12.4449 -10.6629  -8.8967  -7.0494  -5.5540  -5.1544  -4.1405  -2.7600
    -1.7519  -1.2977  -0.8920  -0.7469   0.8030   1.2371   1.7338   1.7876

          k = 0.1665 0.3268 0.0000 ( 41659 PWs)   bands (ev):

   -12.3226 -10.5393  -9.1668  -7.3295  -5.7006  -5.0380  -4.2854  -2.6838
    -1.8705  -1.1700  -0.7208  -0.6170   0.9227   1.3489   1.8782   1.9331

          k = 0.1665 0.3653 0.0000 ( 41643 PWs)   bands (ev):

   -12.1885 -10.4036  -9.4328  -7.6045  -5.8320  -4.9104  -4.4149  -2.7122
    -1.9478  -1.0299  -0.6116  -0.3964   1.1046   1.4523   1.8124   2.0420

          k = 0.1665 0.4037 0.0000 ( 41614 PWs)   bands (ev):

   -12.0451 -10.2581  -9.6895  -7.8693  -5.9446  -4.7745  -4.5258  -2.8209
    -1.9939  -0.8800  -0.5554  -0.0981   1.2361   1.5227   1.7337   2.1279

          k = 0.1665 0.4422 0.0000 ( 41586 PWs)   bands (ev):

   -11.8967 -10.1074  -9.9306  -8.1177  -6.0363  -4.6349  -4.6160  -2.9687
    -2.0256  -0.7251  -0.5324   0.2526   1.1397   1.5405   1.9396   2.1901

          k = 0.1665 0.4806 0.0000 ( 41561 PWs)   bands (ev):

   -11.7517 -10.1464  -9.9594  -8.3401  -6.1058  -4.6845  -4.4992  -3.1231
    -2.0497  -0.5808  -0.5179   0.6253   0.9583   1.5223   2.2661   2.3212

          k = 0.1665 0.5191 0.0000 ( 41536 PWs)   bands (ev):

   -11.6258 -10.3201  -9.8304  -8.5193  -6.1526  -4.7305  -4.3822  -3.2572
    -2.0667  -0.5400  -0.4246   0.7917   0.9763   1.4972   2.4887   2.5937

          k = 0.1665 0.5575 0.0000 ( 41571 PWs)   bands (ev):

   -11.5474 -10.4225  -9.7496  -8.6254  -6.1760  -4.7536  -4.3096  -3.3395
    -2.0756  -0.5396  -0.3406   0.6877   1.2179   1.4816   2.6664   2.8699

          k = 0.1998 0.3461 0.0000 ( 41669 PWs)   bands (ev):

   -12.1947 -10.4100  -9.4170  -7.5871  -5.8543  -4.9162  -4.4369  -2.6709
    -1.8553  -1.0369  -0.5444  -0.4985   0.9965   1.4392   1.8027   2.0316

          k = 0.1998 0.3845 0.0000 ( 41609 PWs)   bands (ev):

   -12.0558 -10.2693  -9.6634  -7.8403  -5.9895  -4.7844  -4.5703  -2.7697
    -1.7902  -0.8924  -0.3815  -0.3375   1.1358   1.4889   1.6063   2.0949

          k = 0.1998 0.4230 0.0000 ( 41600 PWs)   bands (ev):

   -11.9087 -10.1199  -9.9012  -8.0844  -6.1031  -4.6824  -4.6457  -2.9197
    -1.7374  -0.7393  -0.2430  -0.1280   1.2009   1.4794   1.5748   2.1535

          k = 0.1998 0.4614 0.0000 ( 41568 PWs)   bands (ev):

   -11.7585 -10.1234  -9.9672  -8.3125  -6.1928  -4.7710  -4.5051  -3.0835
    -1.7111  -0.5830  -0.1976   0.1892   1.0513   1.4352   1.8304   2.2828

          k = 0.1998 0.4999 0.0000 ( 41537 PWs)   bands (ev):

   -11.6160 -10.3183  -9.8218  -8.5127  -6.2576  -4.8350  -4.3727  -3.2377
    -1.7021  -0.4338  -0.1806   0.5267   0.8739   1.3890   2.1613   2.4452

          k = 0.1998 0.5383 0.0000 ( 41541 PWs)   bands (ev):

   -11.5031 -10.4630  -9.7060  -8.6617  -6.2967  -4.8736  -4.2685  -3.3567
    -1.7006  -0.3121  -0.1799   0.7353   0.8174   1.3570   2.4798   2.5899

          k = 0.1998 0.5768 0.0000 ( 41574 PWs)   bands (ev):

   -11.4574 -10.5193  -9.6589  -8.7199  -6.3097  -4.8865  -4.2264  -3.4039
    -1.7008  -0.2575  -0.1863   0.6805   0.9433   1.3456   2.6117   2.6691

          k = 0.2331 0.4037 0.0000 ( 41597 PWs)   bands (ev):

   -11.9127 -10.1242  -9.8910  -8.0728  -6.1262  -4.7056  -4.6493  -2.9043
    -1.5986  -0.7444  -0.2961  -0.1141   1.2368   1.4064   1.4584   2.1414

          k = 0.2331 0.4422 0.0000 ( 41570 PWs)   bands (ev):

   -11.7622 -10.1107  -9.9714  -8.2972  -6.2384  -4.8167  -4.5083  -3.0648
    -1.4497  -0.5895  -0.1189   0.0318   1.1821   1.3904   1.4636   2.2636

          k = 0.2331 0.4806 0.0000 ( 41551 PWs)   bands (ev):

   -11.6106 -10.3154  -9.8172  -8.5064  -6.3239  -4.9016  -4.3673  -3.2274
    -1.3626  -0.4339   0.1029   0.1363   1.0005   1.3220   1.7426   2.4187

          k = 0.2331 0.5191 0.0000 ( 41528 PWs)   bands (ev):

   -11.4716 -10.4903  -9.6753  -8.6853  -6.3815  -4.9588  -4.2391  -3.3723
    -1.3209  -0.2904   0.1206   0.4124   0.8495   1.2706   2.0569   2.5311

          k = 0.2331 0.5575 0.0000 ( 41555 PWs)   bands (ev):

   -11.3778 -10.6022  -9.5791  -8.8002  -6.4105  -4.9875  -4.1531  -3.4673
    -1.3050  -0.1902   0.1092   0.6108   0.7605   1.2433   2.3259   2.4370

          k = 0.2664 0.4614 0.0000 ( 41578 PWs)   bands (ev):

   -11.6089 -10.3142  -9.8157  -8.5038  -6.3466  -4.9245  -4.3656  -3.2240
    -1.1956  -0.4344  -0.0477   0.2173   1.1290   1.2993   1.4971   2.4098

          k = 0.2664 0.4999 0.0000 ( 41556 PWs)   bands (ev):

   -11.4552 -10.5041  -9.6595  -8.6969  -6.4252  -5.0029  -4.2238  -3.3811
    -1.0201  -0.2809   0.0965   0.2839   1.0458   1.2266   1.6925   2.5013

          k = 0.2664 0.5383 0.0000 ( 41537 PWs)   bands (ev):

   -11.3197 -10.6615  -9.5214  -8.8573  -6.4729  -5.0506  -4.0998  -3.5154
    -0.9300  -0.1463   0.2612   0.2655   0.9864   1.1803   1.9481   2.3334

          k = 0.2664 0.5768 0.0000 ( 41508 PWs)   bands (ev):

   -11.2563 -10.7323  -9.4565  -8.9297  -6.4889  -5.0665  -4.0421  -3.5766
    -0.9039  -0.0819   0.2299   0.3462   0.9663   1.1642   2.0968   2.2220

          k = 0.2997 0.5191 0.0000 ( 41530 PWs)   bands (ev):

   -11.2977 -10.6838  -9.4997  -8.8787  -6.4941  -5.0720  -4.0796  -3.5339
    -0.7284  -0.1309   0.0719   0.2969   1.1590   1.1840   1.7123   2.3001

          k = 0.2997 0.5575 0.0000 ( 41527 PWs)   bands (ev):

   -11.1614 -10.8312  -9.3613  -9.0280  -6.5289  -5.1069  -3.9561  -3.6621
    -0.5519  -0.0056   0.0625   0.2283   1.1237   1.2756   1.8057   2.1081

          k = 0.3330 0.5768 0.0000 ( 41484 PWs)   bands (ev):

   -10.9982 -10.9982  -9.1964  -9.1964  -6.5477  -5.1259  -3.8097  -3.8097
    -0.2127  -0.2127   0.1243   0.1243   1.1043   1.5788   1.5788   2.0239

     the Fermi energy is    -2.7876 ev

!    total energy              =     -27.90594734 Ry
     Harris-Foulkes estimate   =     -27.90594734 Ry
     estimated scf accuracy    <          3.8E-12 Ry

     The total energy is the sum of the following terms:

     one-electron contribution =    -515.29781163 Ry
     hartree contribution      =     258.76245245 Ry
     xc contribution           =      -8.20909012 Ry
     ewald contribution        =     236.83854822 Ry
     smearing contrib. (-TS)   =      -0.00004626 Ry

     convergence has been achieved in  11 iterations

     Forces acting on atoms (Ry/au):

     atom    1 type  1   force =     0.00000000    0.00000000   -0.00001895
     atom    2 type  1   force =     0.00000000    0.00000000   -0.00001895
     atom    3 type  1   force =     0.00000000    0.00000000    0.00001895
     atom    4 type  1   force =     0.00000000    0.00000000    0.00001895

     Total force =     0.000038     Total SCF correction =     0.000001


     entering subroutine stress ...

          total   stress  (Ry/bohr**3)                   (kbar)     P=    3.82
   0.00003894   0.00000000   0.00000000          5.73      0.00      0.00
   0.00000000   0.00003894   0.00000000          0.00      5.73      0.00
   0.00000000   0.00000000   0.00000001          0.00      0.00      0.00


     number of scf cycles    =   2
     number of bfgs steps    =   1

     enthalpy old            =     -27.9053899005 Ry
     enthalpy new            =     -27.9059473390 Ry

     CASE: enthalpy_new < enthalpy_old


     WARNING: bfgs curvature condition failed, Theta= 0.828
     new trust radius        =       0.0252547430 bohr
     new conv_thr            =            1.0E-10 Ry

     new unit-cell volume =   7007.46196 a.u.^3 (  1038.39872 Ang^3 )

CELL_PARAMETERS (alat=  9.30281858)
   1.002520430   0.000000000   0.000000000
  -0.501260215   0.868208160   0.000000000
   0.000000000   0.000000000  10.000000000

ATOMIC_POSITIONS (crystal)
Sn       0.666666667   0.333333333   0.010962688
Sn       0.333333333   0.666666667   0.010962688
Sn       0.666666667   0.333333333   0.070734107
Sn       0.333333333   0.666666667   0.070734107



     Writing output data file SnBLrelax.save
     NEW-OLD atomic charge density approx. for the potential
     NEW k-points:
        k(    1) = (   0.0000000   0.0000000   0.0000000), wk =   0.0022222
        k(    2) = (   0.0000000   0.0383933   0.0000000), wk =   0.0133333
        k(    3) = (   0.0000000   0.0767865   0.0000000), wk =   0.0133333
        k(    4) = (   0.0000000   0.1151798   0.0000000), wk =   0.0133333
        k(    5) = (   0.0000000   0.1535730   0.0000000), wk =   0.0133333
        k(    6) = (   0.0000000   0.1919663   0.0000000), wk =   0.0133333
        k(    7) = (   0.0000000   0.2303595   0.0000000), wk =   0.0133333
        k(    8) = (   0.0000000   0.2687528   0.0000000), wk =   0.0133333
        k(    9) = (   0.0000000   0.3071460   0.0000000), wk =   0.0133333
        k(   10) = (   0.0000000   0.3455393   0.0000000), wk =   0.0133333
        k(   11) = (   0.0000000   0.3839325   0.0000000), wk =   0.0133333
        k(   12) = (   0.0000000   0.4223258   0.0000000), wk =   0.0133333
        k(   13) = (   0.0000000   0.4607190   0.0000000), wk =   0.0133333
        k(   14) = (   0.0000000   0.4991123   0.0000000), wk =   0.0133333
        k(   15) = (   0.0000000   0.5375055   0.0000000), wk =   0.0133333
        k(   16) = (   0.0000000  -0.5758988   0.0000000), wk =   0.0066667
        k(   17) = (   0.0332495   0.0575899   0.0000000), wk =   0.0133333
        k(   18) = (   0.0332495   0.0959831   0.0000000), wk =   0.0266667
        k(   19) = (   0.0332495   0.1343764   0.0000000), wk =   0.0266667
        k(   20) = (   0.0332495   0.1727696   0.0000000), wk =   0.0266667
        k(   21) = (   0.0332495   0.2111629   0.0000000), wk =   0.0266667
        k(   22) = (   0.0332495   0.2495561   0.0000000), wk =   0.0266667
        k(   23) = (   0.0332495   0.2879494   0.0000000), wk =   0.0266667
        k(   24) = (   0.0332495   0.3263426   0.0000000), wk =   0.0266667
        k(   25) = (   0.0332495   0.3647359   0.0000000), wk =   0.0266667
        k(   26) = (   0.0332495   0.4031291   0.0000000), wk =   0.0266667
        k(   27) = (   0.0332495   0.4415224   0.0000000), wk =   0.0266667
        k(   28) = (   0.0332495   0.4799156   0.0000000), wk =   0.0266667
        k(   29) = (   0.0332495   0.5183089   0.0000000), wk =   0.0266667
        k(   30) = (   0.0332495   0.5567021   0.0000000), wk =   0.0266667
        k(   31) = (   0.0664991   0.1151798   0.0000000), wk =   0.0133333
        k(   32) = (   0.0664991   0.1535730   0.0000000), wk =   0.0266667
        k(   33) = (   0.0664991   0.1919663   0.0000000), wk =   0.0266667
        k(   34) = (   0.0664991   0.2303595   0.0000000), wk =   0.0266667
        k(   35) = (   0.0664991   0.2687528   0.0000000), wk =   0.0266667
        k(   36) = (   0.0664991   0.3071460   0.0000000), wk =   0.0266667
        k(   37) = (   0.0664991   0.3455393   0.0000000), wk =   0.0266667
        k(   38) = (   0.0664991   0.3839325   0.0000000), wk =   0.0266667
        k(   39) = (   0.0664991   0.4223258   0.0000000), wk =   0.0266667
        k(   40) = (   0.0664991   0.4607190   0.0000000), wk =   0.0266667
        k(   41) = (   0.0664991   0.4991123   0.0000000), wk =   0.0266667
        k(   42) = (   0.0664991   0.5375055   0.0000000), wk =   0.0266667
[...]
    -2.9297  -1.9399  -0.6631   0.7600   1.3793   1.8120   2.4261   2.4693

          k = 0.0000 0.5205 0.0000 ( 44688 PWs)   bands (ev):

   -11.6484 -10.2183  -9.8415  -8.4047  -5.5345  -4.4999  -4.1289  -3.7832
    -3.0163  -1.9489  -0.5628   0.6312   1.6963   1.9357   2.4571   2.6493

          k = 0.0000-0.5577 0.0000 ( 44680 PWs)   bands (ev):

   -11.6169 -10.2631  -9.8089  -8.4516  -5.5417  -4.4693  -4.1362  -3.7967
    -3.0464  -1.9520  -0.5237   0.5821   1.8290   1.9903   2.4370   2.7607

          k = 0.0322 0.0558 0.0000 ( 44575 PWs)   bands (ev):

   -12.7824 -10.9960  -7.2432  -5.5886  -5.1199  -4.6810  -4.5028  -3.2810
    -3.0332  -1.8028  -1.1350  -1.0202  -0.9451   0.3993   0.5953   1.0203

          k = 0.0322 0.0929 0.0000 ( 44561 PWs)   bands (ev):

   -12.7527 -10.9660  -7.4235  -5.5595  -5.3561  -4.7369  -4.3512  -3.3358
    -2.8229  -1.7714  -1.1574  -1.0377  -0.8937   0.3832   0.6294   0.6318

          k = 0.0322 0.1301 0.0000 ( 44545 PWs)   bands (ev):

   -12.7084 -10.9213  -7.6570  -5.6413  -5.5162  -4.8132  -4.1688  -3.4107
    -2.5851  -1.7244  -1.1999  -1.1289  -0.7194   0.3803   0.6795   0.8061

          k = 0.0322 0.1673 0.0000 ( 44515 PWs)   bands (ev):

   -12.6496 -10.8619  -7.9219  -5.9488  -5.4589  -4.9030  -3.9866  -3.4990
    -2.3565  -1.6621  -1.3419  -1.1175  -0.4986   0.4105   0.7452   1.0258

          k = 0.0322 0.2045 0.0000 ( 44527 PWs)   bands (ev):

   -12.5767 -10.7882  -8.2032  -6.2644  -5.3882  -4.9997  -3.8289  -3.5946
    -2.1620  -1.5847  -1.5222  -1.0370  -0.2390   0.4920   0.8261   1.2631

          k = 0.0322 0.2417 0.0000 ( 44571 PWs)   bands (ev):

   -12.4903 -10.7008  -8.4908  -6.5795  -5.3048  -5.0977  -3.7111  -3.6919
    -2.0166  -1.7197  -1.4928  -0.8882   0.0526   0.6353   0.9217   1.3666

          k = 0.0322 0.2788 0.0000 ( 44578 PWs)   bands (ev):

   -12.3912 -10.6004  -8.7779  -6.8889  -5.2159  -5.1865  -3.7866  -3.6379
    -1.9266  -1.9228  -1.3872  -0.6695   0.3705   0.8354   1.0315   1.4906

          k = 0.0322 0.3160 0.0000 ( 44605 PWs)   bands (ev):

   -12.2804 -10.4881  -9.0589  -7.1882  -5.2841  -5.1010  -3.8751  -3.6042
    -2.1363  -1.8731  -1.2690  -0.3880   0.7089   1.0602   1.1546   1.6278

          k = 0.0322 0.3532 0.0000 ( 44624 PWs)   bands (ev):

   -12.1599 -10.3657  -9.3293  -7.4738  -5.3638  -4.9863  -3.9548  -3.6004
    -2.3425  -1.8548  -1.1396  -0.0560   1.0615   1.2170   1.2898   1.7877

          k = 0.0322 0.3904 0.0000 ( 44640 PWs)   bands (ev):

   -12.0326 -10.2360  -9.5839  -7.7411  -5.4329  -4.8652  -4.0238  -3.6169
    -2.5384  -1.8556  -1.0016   0.3119   1.1818   1.4161   1.4392   1.9485

          k = 0.0322 0.4276 0.0000 ( 44642 PWs)   bands (ev):

   -11.9033 -10.1039  -9.8166  -7.9845  -5.4897  -4.7427  -4.0805  -3.6464
    -2.7159  -1.8658  -0.8593   0.7002   1.0224   1.5826   2.1254   2.1782

          k = 0.0322 0.4647 0.0000 ( 44667 PWs)   bands (ev):

   -11.7806 -10.0176  -9.9780  -8.1944  -5.5332  -4.6263  -4.1239  -3.6833
    -2.8647  -1.8784  -0.7207   0.8417   1.0880   1.7284   2.3241   2.3747

          k = 0.0322 0.5019 0.0000 ( 44660 PWs)   bands (ev):

   -11.6787 -10.1721  -9.8731  -8.3556  -5.5626  -4.5292  -4.1532  -3.7209
    -2.9731  -1.8891  -0.6014   0.6867   1.4375   1.8542   2.3619   2.4422

          k = 0.0322 0.5391 0.0000 ( 44681 PWs)   bands (ev):

   -11.6185 -10.2587  -9.8107  -8.4463  -5.5774  -4.4711  -4.1680  -3.7470
    -3.0304  -1.8950  -0.5277   0.5936   1.6682   1.9317   2.4089   2.5797

          k = 0.0644 0.1115 0.0000 ( 44543 PWs)   bands (ev):

   -12.7158 -10.9287  -7.6203  -5.5973  -5.5234  -4.8083  -4.1868  -3.4054
    -2.6113  -1.7323  -1.1775  -1.1461  -0.7351   0.3658   0.6711   1.0993

          k = 0.0644 0.1487 0.0000 ( 44529 PWs)   bands (ev):

   -12.6642 -10.8767  -7.8588  -5.8762  -5.4732  -4.8991  -4.0013  -3.4943
    -2.3820  -1.6777  -1.2897  -1.1787  -0.5232   0.3640   0.7287   0.9997

          k = 0.0644 0.1859 0.0000 ( 44547 PWs)   bands (ev):

   -12.5984 -10.8102  -8.1220  -6.1734  -5.4095  -5.0010  -3.8221  -3.5945
    -2.1654  -1.6079  -1.4580  -1.1433  -0.2668   0.3979   0.8015   1.2369

          k = 0.0644 0.2231 0.0000 ( 44562 PWs)   bands (ev):

   -12.5188 -10.7297  -8.3978  -6.4772  -5.3333  -5.1066  -3.6990  -3.6712
    -1.9841  -1.6450  -1.5234  -1.0520   0.0260   0.4852   0.8890   1.3322

          k = 0.0644 0.2602 0.0000 ( 44563 PWs)   bands (ev):

   -12.4261 -10.6358  -8.6778  -6.7803  -5.2540  -5.2014  -3.8026  -3.5617
    -1.8510  -1.8438  -1.4246  -0.8938   0.3484   0.6344   0.9908   1.4426

          k = 0.0644 0.2974 0.0000 ( 44584 PWs)   bands (ev):

   -12.3210 -10.5293  -8.9558  -7.0774  -5.3168  -5.1372  -3.9009  -3.4965
    -2.0480  -1.7672  -1.3127  -0.6678   0.6941   0.8378   1.1058   1.5710

          k = 0.0644 0.3346 0.0000 ( 44625 PWs)   bands (ev):

   -12.2051 -10.4116  -9.2267  -7.3642  -5.4065  -5.0277  -3.9909  -3.4698
    -2.2514  -1.7239  -1.1888  -0.3825   1.0568   1.0568   1.2328   1.7167

          k = 0.0644 0.3718 0.0000 ( 44641 PWs)   bands (ev):

   -12.0806 -10.2850  -9.4857  -7.6366  -5.4864  -4.9094  -4.0702  -3.4722
    -2.4471  -1.7087  -1.0548  -0.0514   1.1765   1.3642   1.4341   1.8628

          k = 0.0644 0.4090 0.0000 ( 44626 PWs)   bands (ev):

   -11.9512 -10.1530  -9.7272  -7.8895  -5.5538  -4.7868  -4.1371  -3.4953
    -2.6273  -1.7098  -0.9139   0.3098   1.0944   1.5042   1.8068   2.0201

          k = 0.0644 0.4461 0.0000 ( 44647 PWs)   bands (ev):

   -11.8232 -10.0221  -9.9436  -8.1154  -5.6073  -4.6659  -4.1902  -3.5330
    -2.7823  -1.7183  -0.7719   0.6830   0.9246   1.6351   2.1640   2.2246

          k = 0.0644 0.4833 0.0000 ( 44669 PWs)   bands (ev):

   -11.7078 -10.1229  -9.9034  -8.3024  -5.6462  -4.5566  -4.2287  -3.5787
    -2.9015  -1.7281  -0.6400   0.7546   1.0404   1.7407   2.3033   2.4364

          k = 0.0644 0.5205 0.0000 ( 44670 PWs)   bands (ev):

   -11.6228 -10.2463  -9.8157  -8.4313  -5.6697  -4.4758  -4.2521  -3.6204
    -2.9758  -1.7353  -0.5390   0.6265   1.3276   1.8039   2.3707   2.6604

          k = 0.0644 0.5577 0.0000 ( 44654 PWs)   bands (ev):

   -11.5907 -10.2914  -9.7824  -8.4784  -5.6776  -4.4450  -4.2599  -3.6381
    -3.0009  -1.7380  -0.4993   0.5774   1.4463   1.8232   2.4268   2.7212

          k = 0.0966 0.1673 0.0000 ( 44523 PWs)   bands (ev):

   -12.6057 -10.8175  -8.0939  -6.1417  -5.4167  -5.0050  -3.8148  -3.5979
    -2.1617  -1.6157  -1.4310  -1.1905  -0.2714   0.3599   0.7932   1.2284

          k = 0.0966 0.2045 0.0000 ( 44561 PWs)   bands (ev):

   -12.5331 -10.7442  -8.3489  -6.4230  -5.3477  -5.1197  -3.7113  -3.6351
    -1.9514  -1.5991  -1.5387  -1.1603   0.0237   0.3895   0.8725   1.3137

          k = 0.0966 0.2417 0.0000 ( 44562 PWs)   bands (ev):

   -12.4470 -10.6570  -8.6141  -6.7104  -5.2808  -5.2212  -3.8267  -3.4834
    -1.7832  -1.7728  -1.4472  -1.0735   0.3527   0.4711   0.9658   1.4159

          k = 0.0966 0.2788 0.0000 ( 44581 PWs)   bands (ev):

   -12.3481 -10.5569  -8.8823  -6.9974  -5.3593  -5.1613  -3.9383  -3.3741
    -1.9755  -1.6399  -1.3420  -0.9196   0.6144   0.7079   1.0721   1.5345

          k = 0.0966 0.3160 0.0000 ( 44616 PWs)   bands (ev):

   -12.2375 -10.4447  -9.1477  -7.2789  -5.4630  -5.0573  -4.0421  -3.3109
    -2.1691  -1.5548  -1.2241  -0.6980   0.8121   1.0818   1.1899   1.6695

          k = 0.0966 0.3532 0.0000 ( 44633 PWs)   bands (ev):

   -12.1170 -10.3221  -9.4056  -7.5504  -5.5569  -4.9427  -4.1350  -3.2896
    -2.3565  -1.5094  -1.0951  -0.4180   1.0212   1.3119   1.4714   1.7328

          k = 0.0966 0.3904 0.0000 ( 44647 PWs)   bands (ev):

   -11.9891 -10.1920  -9.6508  -7.8072  -5.6379  -4.8216  -4.2149  -3.3026
    -2.5290  -1.4911  -0.9573  -0.0942   1.1071   1.4361   1.7339   1.9997

          k = 0.0966 0.4276 0.0000 ( 44647 PWs)   bands (ev):

   -11.8587 -10.0588  -9.8768  -8.0432  -5.7043  -4.6984  -4.2803  -3.3434
    -2.6763  -1.4886  -0.8148   0.2554   0.9964   1.5459   1.9567   2.1566

          k = 0.0966 0.4647 0.0000 ( 44637 PWs)   bands (ev):

   -11.7339 -10.0743  -9.9309  -8.2490  -5.7549  -4.5808  -4.3302  -3.4046
    -2.7886  -1.4931  -0.6755   0.6078   0.8277   1.6231   2.2045   2.2461

          k = 0.0966 0.5019 0.0000 ( 44620 PWs)   bands (ev):

   -11.6291 -10.2280  -9.8230  -8.4092  -5.7889  -4.4821  -4.3638  -3.4712
    -2.8613  -1.4988  -0.5547   0.6761   0.9245   1.6609   2.3019   2.5106

          k = 0.0966 0.5391 0.0000 ( 44627 PWs)   bands (ev):

   -11.5664 -10.3153  -9.7581  -8.5004  -5.8061  -4.4227  -4.3807  -3.5170
    -2.8962  -1.5025  -0.4795   0.5834   1.1310   1.6731   2.4256   2.7370

          k = 0.1288 0.2231 0.0000 ( 44561 PWs)   bands (ev):

   -12.4540 -10.6641  -8.5922  -6.6863  -5.2908  -5.2294  -3.8374  -3.4505
    -1.7588  -1.7390  -1.4548  -1.1441   0.3567   0.4082   0.9574   1.4073

          k = 0.1288 0.2602 0.0000 ( 44563 PWs)   bands (ev):

   -12.3617 -10.5707  -8.8438  -6.9554  -5.3866  -5.1736  -3.9635  -3.2923
    -1.9294  -1.5511  -1.3568  -1.0747   0.4745   0.7205   1.0548   1.5173

          k = 0.1288 0.2974 0.0000 ( 44596 PWs)   bands (ev):

   -12.2571 -10.4646  -9.0977  -7.2244  -5.5069  -5.0752  -4.0835  -3.1791
    -2.1024  -1.4050  -1.2455  -0.9383   0.6013   1.1062   1.1628   1.6436

          k = 0.1288 0.3346 0.0000 ( 44606 PWs)   bands (ev):

   -12.1413 -10.3471  -9.3486  -7.4884  -5.6178  -4.9651  -4.1929  -3.1211
    -2.2681  -1.3067  -1.1222  -0.7322   0.7844   1.2745   1.5081   1.7246

          k = 0.1288 0.3718 0.0000 ( 44632 PWs)   bands (ev):

   -12.0165 -10.2201  -9.5917  -7.7429  -5.7153  -4.8467  -4.2888  -3.1192
    -2.4151  -1.2503  -0.9887  -0.4653   0.9780   1.3829   1.5714   1.9515

          k = 0.1288 0.4090 0.0000 ( 44662 PWs)   bands (ev):

   -11.8860 -10.0871  -9.8214  -7.9826  -5.7972  -4.7234  -4.3692  -3.1679
    -2.5319  -1.2235  -0.8479  -0.1546   1.0264   1.4696   1.6054   2.0712

          k = 0.1288 0.4461 0.0000 ( 44637 PWs)   bands (ev):

   -11.7556 -10.0305  -9.9538  -8.2001  -5.8619  -4.6008  -4.4329  -3.2538
    -2.6139  -1.2140  -0.7053   0.1779   0.8959   1.5169   1.8530   2.1247

          k = 0.1288 0.4833 0.0000 ( 44610 PWs)   bands (ev):

   -11.6362 -10.2068  -9.8312  -8.3836  -5.9088  -4.4888  -4.4790  -3.3531
    -2.6652  -1.2129  -0.5717   0.5015   0.7354   1.5288   2.1514   2.2354

          k = 0.1288 0.5205 0.0000 ( 44637 PWs)   bands (ev):

   -11.5465 -10.3310  -9.7386  -8.5129  -5.9371  -4.5068  -4.4047  -3.4349
    -2.6930  -1.2143  -0.4681   0.6093   0.7619   1.5260   2.3791   2.4173

          k = 0.1288 0.5577 0.0000 ( 44616 PWs)   bands (ev):

   -11.5119 -10.3771  -9.7029  -8.5610  -5.9466  -4.5161  -4.3723  -3.4675
    -2.7017  -1.2151  -0.4270   0.5600   0.8686   1.5235   2.5001   2.6071

          k = 0.1610 0.2788 0.0000 ( 44583 PWs)   bands (ev):

   -12.2636 -10.4712  -9.0805  -7.2055  -5.5232  -5.0812  -4.0991  -3.1272
    -2.0736  -1.3427  -1.2527  -1.0323   0.5171   1.1160   1.1531   1.6356

          k = 0.1610 0.3160 0.0000 ( 44604 PWs)   bands (ev):

   -12.1536 -10.3596  -9.3189  -7.4558  -5.6523  -4.9764  -4.2262  -3.0195
    -2.2014  -1.1694  -1.1358  -0.9274   0.6164   1.2551   1.5296   1.7458

          k = 0.1610 0.3532 0.0000 ( 44644 PWs)   bands (ev):

   -12.0331 -10.2372  -9.5542  -7.7018  -5.7683  -4.8620  -4.3403  -2.9936
    -2.2963  -1.0443  -1.0077  -0.7507   0.7743   1.3488   1.5476   1.9215

          k = 0.1610 0.3904 0.0000 ( 44641 PWs)   bands (ev):

   -11.9046 -10.1063  -9.7816  -7.9386  -5.8680  -4.7405  -4.4384  -3.0487
    -2.3528  -0.9668  -0.8703  -0.5084   0.9424   1.4028   1.4136   2.0119

          k = 0.1610 0.4276 0.0000 ( 44633 PWs)   bands (ev):

   -11.7720  -9.9954  -9.9710  -8.1606  -5.9494  -4.6158  -4.5186  -3.1557
    -2.3837  -0.9249  -0.7276  -0.2197   0.9419   1.4334   1.4815   2.0679

          k = 0.1610 0.4647 0.0000 ( 44630 PWs)   bands (ev):

   -11.6428 -10.1865  -9.8388  -8.3589  -6.0114  -4.5795  -4.4950  -3.2802
    -2.4022  -0.9051  -0.5869   0.0869   0.7974   1.4209   1.7427   2.1830

          k = 0.1610 0.5019 0.0000 ( 44623 PWs)   bands (ev):

   -11.5314 -10.3398  -9.7243  -8.5180  -6.0531  -4.6205  -4.3912  -3.3926
    -2.4140  -0.8972  -0.4631   0.3683   0.6509   1.4007   2.0249   2.3251

          k = 0.1610 0.5391 0.0000 ( 44619 PWs)   bands (ev):

   -11.4625 -10.4298  -9.6531  -8.6116  -6.0740  -4.6411  -4.3270  -3.4627
    -2.4199  -0.8946  -0.3844   0.5518   0.5581   1.3877   2.2337   2.4375

          k = 0.1932 0.3346 0.0000 ( 44643 PWs)   bands (ev):

   -12.0387 -10.2429  -9.5413  -7.6876  -5.7870  -4.8671  -4.3587  -2.9505
    -2.2377  -1.0142  -0.9575  -0.8654   0.6795   1.3371   1.5504   1.9118

          k = 0.1932 0.3718 0.0000 ( 44634 PWs)   bands (ev):

   -11.9140 -10.1160  -9.7608  -7.9154  -5.9059  -4.7491  -4.4759  -2.9933
    -2.2075  -0.8823  -0.7907  -0.7354   0.8002   1.3587   1.3839   1.9826

          k = 0.1932 0.4090 0.0000 ( 44661 PWs)   bands (ev):

   -11.7821  -9.9817  -9.9727  -8.1349  -6.0061  -4.6251  -4.5747  -3.1045
    -2.1588  -0.7437  -0.6768  -0.5352   0.9265   1.2347   1.3803   2.0344

          k = 0.1932 0.4461 0.0000 ( 44646 PWs)   bands (ev):

   -11.6479 -10.1705  -9.8447  -8.3395  -6.0854  -4.6530  -4.4997  -3.2397
    -2.1231  -0.6231  -0.5885  -0.2837   0.8581   1.3452   1.3690   2.1476

          k = 0.1932 0.4833 0.0000 ( 44613 PWs)   bands (ev):

   -11.5211 -10.3437  -9.7147  -8.5185  -6.1428  -4.7097  -4.3819  -3.3717
    -2.1037  -0.5815  -0.4597  -0.0182   0.7056   1.3063   1.6298   2.2821

          k = 0.1932 0.5205 0.0000 ( 44630 PWs)   bands (ev):

   -11.4212 -10.4717  -9.6120  -8.6510  -6.1775  -4.7439  -4.2894  -3.4746
    -2.0951  -0.5649  -0.3527   0.2017   0.5798   1.2789   1.8753   2.3223

          k = 0.1932 0.5577 0.0000 ( 44641 PWs)   bands (ev):

   -11.3809 -10.5213  -9.5704  -8.7025  -6.1892  -4.7554  -4.2522  -3.5157
    -2.0928  -0.5603  -0.3089   0.2920   0.5292   1.2692   1.9892   2.2602

          k = 0.2254 0.3904 0.0000 ( 44663 PWs)   bands (ev):

   -11.7855  -9.9853  -9.9648  -8.1259  -6.0256  -4.6283  -4.5942  -3.0887
    -2.0553  -0.7475  -0.6674  -0.5721   0.8783   1.1730   1.3621   2.0235

          k = 0.2254 0.4276 0.0000 ( 44648 PWs)   bands (ev):

   -11.6507 -10.1618  -9.8478  -8.3288  -6.1241  -4.6917  -4.5023  -3.2215
    -1.9162  -0.6069  -0.5338  -0.4099   0.9320   1.0862   1.3062   2.1297

          k = 0.2254 0.4647 0.0000 ( 44630 PWs)   bands (ev):

   -11.5151 -10.3450  -9.7093  -8.5173  -6.1993  -4.7663  -4.3765  -3.3615
    -1.8214  -0.4671  -0.3450  -0.3081   0.7811   1.2478   1.2769   2.2554

          k = 0.2254 0.5019 0.0000 ( 44644 PWs)   bands (ev):

   -11.3912 -10.5010  -9.5825  -8.6780  -6.2501  -4.8166  -4.2624  -3.4882
    -1.7686  -0.3417  -0.2539  -0.1447   0.6336   1.2034   1.5120   2.2447

          k = 0.2254 0.5391 0.0000 ( 44646 PWs)   bands (ev):

   -11.3081 -10.6004  -9.4970  -8.7806  -6.2756  -4.8419  -4.1860  -3.5715
    -1.7461  -0.2574  -0.2338  -0.0072   0.5397   1.1799   1.6909   2.0945

          k = 0.2576 0.4461 0.0000 ( 44657 PWs)   bands (ev):

   -11.5131 -10.3452  -9.7076  -8.5167  -6.2186  -4.7856  -4.3747  -3.3585
    -1.6897  -0.4913  -0.4664  -0.1953   0.8608   1.0804   1.2280   2.2464

          k = 0.2576 0.4833 0.0000 ( 44675 PWs)   bands (ev):

   -11.3755 -10.5161  -9.5670  -8.6918  -6.2874  -4.8541  -4.2481  -3.4963
    -1.5199  -0.4047  -0.3287  -0.0607   0.7291   1.1649   1.2158   2.2067

          k = 0.2576 0.5205 0.0000 ( 44659 PWs)   bands (ev):

   -11.2544 -10.6574  -9.4431  -8.8366  -6.3291  -4.8957  -4.1377  -3.6149
    -1.4228  -0.3054  -0.2093  -0.0093   0.6269   1.1248   1.3790   1.9961

          k = 0.2576 0.5577 0.0000 ( 44671 PWs)   bands (ev):

   -11.1980 -10.7205  -9.3852  -8.9015  -6.3431  -4.9096  -4.0864  -3.6690
    -1.3925  -0.2594  -0.1518  -0.0080   0.5880   1.1111   1.4595   1.9051

          k = 0.2898 0.5019 0.0000 ( 44661 PWs)   bands (ev):

   -11.2339 -10.6789  -9.4227  -8.8577  -6.3472  -4.9139  -4.1193  -3.6317
    -1.2562  -0.4645  -0.1951   0.0694   0.7314   1.1062   1.1964   1.9640

          k = 0.2898 0.5391 0.0000 ( 44685 PWs)   bands (ev):

   -11.1115 -10.8119  -9.2977  -8.9934  -6.3774  -4.9442  -4.0090  -3.7458
    -1.0858  -0.5143  -0.0860   0.0725   0.7651   1.0759   1.2110   1.8071

          k = 0.3220 0.5577 0.0000 ( 44673 PWs)   bands (ev):

   -10.9636 -10.9636  -9.1475  -9.1475  -6.3937  -4.9606  -3.8779  -3.8779
    -0.7772  -0.7772   0.0188   0.0188   0.9953   0.9953   1.0594   1.7398

     the Fermi energy is    -3.0259 ev

!    total energy              =     -27.91477722 Ry
     Harris-Foulkes estimate   =     -27.91477722 Ry
     estimated scf accuracy    <          2.8E-13 Ry

     The total energy is the sum of the following terms:

     one-electron contribution =    -481.99231415 Ry
     hartree contribution      =     242.02974439 Ry
     xc contribution           =      -8.09328867 Ry
     ewald contribution        =     220.14076745 Ry
     smearing contrib. (-TS)   =       0.00031375 Ry

     convergence has been achieved in  12 iterations

     Forces acting on atoms (Ry/au):

     atom    1 type  1   force =     0.00000000    0.00000000   -0.00000008
     atom    2 type  1   force =     0.00000000    0.00000000   -0.00000008
     atom    3 type  1   force =     0.00000000    0.00000000    0.00000008
     atom    4 type  1   force =     0.00000000    0.00000000    0.00000008

     Total force =     0.000000     Total SCF correction =     0.000001
     SCF correction compared to forces is large: reduce conv_thr to get better values


     entering subroutine stress ...

          total   stress  (Ry/bohr**3)                   (kbar)     P=    0.00
   0.00000004   0.00000000   0.00000000          0.01      0.00      0.00
   0.00000000   0.00000004   0.00000000          0.00      0.01      0.00
   0.00000000   0.00000000  -0.00000001          0.00      0.00      0.00


     Writing output data file SnBLrelax.save
 
     init_run     :     16.96s CPU     17.90s WALL (       2 calls)
     electrons    :   2866.51s CPU   2959.43s WALL (      17 calls)
     update_pot   :      8.70s CPU      8.89s WALL (      15 calls)
     forces       :     16.27s CPU     16.55s WALL (      17 calls)
     stress       :     40.33s CPU     40.66s WALL (      17 calls)

     Called by init_run:
     wfcinit      :     15.38s CPU     16.16s WALL (       2 calls)
     potinit      :      0.34s CPU      0.40s WALL (       2 calls)

     Called by electrons:
     c_bands      :   2496.18s CPU   2577.01s WALL (     216 calls)
     sum_band     :    352.84s CPU    360.98s WALL (     216 calls)
     v_of_rho     :      7.14s CPU      7.21s WALL (     226 calls)
     mix_rho      :      1.26s CPU      1.40s WALL (     216 calls)

     Called by c_bands:
     init_us_2    :     42.40s CPU     50.41s WALL (   42588 calls)
     cegterg      :   2372.55s CPU   2384.13s WALL (   19751 calls)

     Called by *egterg:
     h_psi        :   1864.93s CPU   1893.62s WALL (  100459 calls)
     g_psi        :      5.55s CPU     15.65s WALL (   80526 calls)
     cdiaghg      :    203.64s CPU    210.84s WALL (   98180 calls)

     Called by h_psi:
     add_vuspsi   :     30.66s CPU     68.27s WALL (  100459 calls)

     General routines
     calbec       :    145.57s CPU    122.53s WALL (  103553 calls)
     fft          :      4.70s CPU      4.79s WALL (    2634 calls)
     fftw         :   1908.39s CPU   1859.48s WALL ( 2063170 calls)
     davcio       :      0.76s CPU     69.17s WALL (   62244 calls)
 
     Parallel routines
     fft_scatter  :    989.23s CPU    428.42s WALL ( 2065804 calls)
 
     PWSCF        : 49m12.95s CPU    50m49.30s WALL

 
   This run was terminated on:  11:46:32   3Sep2015            

=------------------------------------------------------------------------------=
   JOB DONE.
=------------------------------------------------------------------------------=
